<?xml version="1.0" encoding="UTF-8"?>

<!-- generated on Thu Oct 31 14:43:02 2013 by SUMO sumo Version 0.18.0
<?xml version="1.0" encoding="UTF-8"?>

<configuration xmlns:xsi="http://www.w3.org/2001/XMLSchema-instance" xsi:noNamespaceSchemaLocation="http://sumo.sf.net/xsd/sumoConfiguration.xsd">

    <input>
        <net-file value="test.net.xml"/>
        <route-files value="test.rou.xml"/>
        <additional-files value="test.rerouter.xml"/>
    </input>

    <output>
        <fcd-output value="test-25.fcd.xml"/>
        <save-state.prefix value="state"/>
    </output>

    <time>
        <begin value="0"/>
        <end value="800"/>
    </time>

    <gui_only>
        <gui-settings-file value="test.settings.xml"/>
    </gui_only>

</configuration>
-->

<fcd-export>
    <timestep time="0.00">
        <vehicle id="0" x="190.15" y="401.65" angle="-90.00" type="DEFAULT_VEHTYPE" speed="0.00" pos="5.10" lane="1/2to0/2_0" slope="0.00"/>
    </timestep>
    <timestep time="1.00">
        <vehicle id="0" x="188.71" y="401.65" angle="-90.00" type="DEFAULT_VEHTYPE" speed="1.44" pos="6.54" lane="1/2to0/2_0" slope="0.00"/>
        <vehicle id="1" x="609.85" y="598.35" angle="90.00" type="DEFAULT_VEHTYPE" speed="0.00" pos="5.10" lane="3/3to4/3_0" slope="0.00"/>
    </timestep>
    <timestep time="2.00">
        <vehicle id="0" x="185.59" y="401.65" angle="-90.00" type="DEFAULT_VEHTYPE" speed="3.12" pos="9.66" lane="1/2to0/2_0" slope="0.00"/>
        <vehicle id="1" x="612.39" y="598.35" angle="90.00" type="DEFAULT_VEHTYPE" speed="2.54" pos="7.64" lane="3/3to4/3_0" slope="0.00"/>
        <vehicle id="2" x="409.85" y="198.35" angle="90.00" type="DEFAULT_VEHTYPE" speed="0.00" pos="5.10" lane="2/1to3/1_0" slope="0.00"/>
    </timestep>
    <timestep time="3.00">
        <vehicle id="0" x="179.93" y="401.65" angle="-90.00" type="DEFAULT_VEHTYPE" speed="5.66" pos="15.32" lane="1/2to0/2_0" slope="0.00"/>
        <vehicle id="1" x="616.57" y="598.35" angle="90.00" type="DEFAULT_VEHTYPE" speed="4.17" pos="11.82" lane="3/3to4/3_0" slope="0.00"/>
        <vehicle id="2" x="412.13" y="198.35" angle="90.00" type="DEFAULT_VEHTYPE" speed="2.28" pos="7.38" lane="2/1to3/1_0" slope="0.00"/>
        <vehicle id="3" x="209.85" y="398.35" angle="90.00" type="DEFAULT_VEHTYPE" speed="0.00" pos="5.10" lane="1/2to2/2_0" slope="0.00"/>
    </timestep>
    <timestep time="4.00">
        <vehicle id="0" x="172.38" y="401.65" angle="-90.00" type="DEFAULT_VEHTYPE" speed="7.55" pos="22.87" lane="1/2to0/2_0" slope="0.00"/>
        <vehicle id="1" x="622.37" y="598.35" angle="90.00" type="DEFAULT_VEHTYPE" speed="5.81" pos="17.62" lane="3/3to4/3_0" slope="0.00"/>
        <vehicle id="2" x="417.00" y="198.35" angle="90.00" type="DEFAULT_VEHTYPE" speed="4.87" pos="12.25" lane="2/1to3/1_0" slope="0.00"/>
        <vehicle id="3" x="211.58" y="398.35" angle="90.00" type="DEFAULT_VEHTYPE" speed="1.73" pos="6.83" lane="1/2to2/2_0" slope="0.00"/>
        <vehicle id="4" x="601.65" y="5.10" angle="180.00" type="DEFAULT_VEHTYPE" speed="0.00" pos="5.10" lane="3/0to3/1_0" slope="0.00"/>
    </timestep>
    <timestep time="5.00">
        <vehicle id="0" x="162.84" y="401.65" angle="-90.00" type="DEFAULT_VEHTYPE" speed="9.54" pos="32.41" lane="1/2to0/2_0" slope="0.00"/>
        <vehicle id="1" x="630.19" y="598.35" angle="90.00" type="DEFAULT_VEHTYPE" speed="7.82" pos="25.44" lane="3/3to4/3_0" slope="0.00"/>
        <vehicle id="2" x="423.73" y="198.35" angle="90.00" type="DEFAULT_VEHTYPE" speed="6.73" pos="18.98" lane="2/1to3/1_0" slope="0.00"/>
        <vehicle id="3" x="215.56" y="398.35" angle="90.00" type="DEFAULT_VEHTYPE" speed="3.98" pos="10.81" lane="1/2to2/2_0" slope="0.00"/>
        <vehicle id="4" x="601.65" y="7.62" angle="180.00" type="DEFAULT_VEHTYPE" speed="2.52" pos="7.62" lane="3/0to3/1_0" slope="0.00"/>
        <vehicle id="5" x="5.10" y="198.35" angle="90.00" type="DEFAULT_VEHTYPE" speed="0.00" pos="5.10" lane="0/1to1/1_0" slope="0.00"/>
    </timestep>
    <timestep time="6.00">
        <vehicle id="0" x="151.83" y="401.65" angle="-90.00" type="DEFAULT_VEHTYPE" speed="11.01" pos="43.42" lane="1/2to0/2_0" slope="0.00"/>
        <vehicle id="1" x="640.19" y="598.35" angle="90.00" type="DEFAULT_VEHTYPE" speed="10.00" pos="35.44" lane="3/3to4/3_0" slope="0.00"/>
        <vehicle id="2" x="432.18" y="198.35" angle="90.00" type="DEFAULT_VEHTYPE" speed="8.45" pos="27.43" lane="2/1to3/1_0" slope="0.00"/>
        <vehicle id="3" x="222.08" y="398.35" angle="90.00" type="DEFAULT_VEHTYPE" speed="6.52" pos="17.33" lane="1/2to2/2_0" slope="0.00"/>
        <vehicle id="4" x="601.65" y="12.08" angle="180.00" type="DEFAULT_VEHTYPE" speed="4.45" pos="12.08" lane="3/0to3/1_0" slope="0.00"/>
        <vehicle id="5" x="7.30" y="198.35" angle="90.00" type="DEFAULT_VEHTYPE" speed="2.20" pos="7.30" lane="0/1to1/1_0" slope="0.00"/>
        <vehicle id="6" x="398.35" y="590.15" angle="0.00" type="DEFAULT_VEHTYPE" speed="0.00" pos="5.10" lane="2/3to2/2_0" slope="0.00"/>
    </timestep>
    <timestep time="7.00">
        <vehicle id="0" x="139.30" y="401.65" angle="-90.00" type="DEFAULT_VEHTYPE" speed="12.53" pos="55.95" lane="1/2to0/2_0" slope="0.00"/>
        <vehicle id="1" x="651.64" y="598.35" angle="90.00" type="DEFAULT_VEHTYPE" speed="11.45" pos="46.89" lane="3/3to4/3_0" slope="0.00"/>
        <vehicle id="2" x="442.71" y="198.35" angle="90.00" type="DEFAULT_VEHTYPE" speed="10.53" pos="37.96" lane="2/1to3/1_0" slope="0.00"/>
        <vehicle id="3" x="230.49" y="398.35" angle="90.00" type="DEFAULT_VEHTYPE" speed="8.41" pos="25.74" lane="1/2to2/2_0" slope="0.00"/>
        <vehicle id="4" x="601.65" y="18.82" angle="180.00" type="DEFAULT_VEHTYPE" speed="6.75" pos="18.82" lane="3/0to3/1_0" slope="0.00"/>
        <vehicle id="5" x="12.06" y="198.35" angle="90.00" type="DEFAULT_VEHTYPE" speed="4.76" pos="12.06" lane="0/1to1/1_0" slope="0.00"/>
        <vehicle id="6" x="398.35" y="587.94" angle="0.00" type="DEFAULT_VEHTYPE" speed="2.21" pos="7.31" lane="2/3to2/2_0" slope="0.00"/>
        <vehicle id="7" x="5.10" y="398.35" angle="90.00" type="DEFAULT_VEHTYPE" speed="0.00" pos="5.10" lane="0/2to1/2_0" slope="0.00"/>
    </timestep>
    <timestep time="8.00">
        <vehicle id="0" x="126.39" y="401.65" angle="-90.00" type="DEFAULT_VEHTYPE" speed="12.91" pos="68.86" lane="1/2to0/2_0" slope="0.00"/>
        <vehicle id="1" x="665.33" y="598.35" angle="90.00" type="DEFAULT_VEHTYPE" speed="13.69" pos="60.58" lane="3/3to4/3_0" slope="0.00"/>
        <vehicle id="2" x="454.59" y="198.35" angle="90.00" type="DEFAULT_VEHTYPE" speed="11.89" pos="49.84" lane="2/1to3/1_0" slope="0.00"/>
        <vehicle id="3" x="241.47" y="398.35" angle="90.00" type="DEFAULT_VEHTYPE" speed="10.97" pos="36.72" lane="1/2to2/2_0" slope="0.00"/>
        <vehicle id="4" x="601.65" y="27.28" angle="180.00" type="DEFAULT_VEHTYPE" speed="8.46" pos="27.28" lane="3/0to3/1_0" slope="0.00"/>
        <vehicle id="5" x="18.99" y="198.35" angle="90.00" type="DEFAULT_VEHTYPE" speed="6.93" pos="18.99" lane="0/1to1/1_0" slope="0.00"/>
        <vehicle id="6" x="398.35" y="583.30" angle="0.00" type="DEFAULT_VEHTYPE" speed="4.64" pos="11.95" lane="2/3to2/2_0" slope="0.00"/>
        <vehicle id="7" x="7.54" y="398.35" angle="90.00" type="DEFAULT_VEHTYPE" speed="2.44" pos="7.54" lane="0/2to1/2_0" slope="0.00"/>
        <vehicle id="8" x="409.85" y="198.35" angle="90.00" type="DEFAULT_VEHTYPE" speed="0.00" pos="5.10" lane="2/1to3/1_0" slope="0.00"/>
    </timestep>
    <timestep time="9.00">
        <vehicle id="0" x="112.84" y="401.65" angle="-90.00" type="DEFAULT_VEHTYPE" speed="13.56" pos="82.41" lane="1/2to0/2_0" slope="0.00"/>
        <vehicle id="1" x="678.94" y="598.35" angle="90.00" type="DEFAULT_VEHTYPE" speed="13.61" pos="74.19" lane="3/3to4/3_0" slope="0.00"/>
        <vehicle id="2" x="467.75" y="198.35" angle="90.00" type="DEFAULT_VEHTYPE" speed="13.16" pos="63.00" lane="2/1to3/1_0" slope="0.00"/>
        <vehicle id="3" x="254.73" y="398.35" angle="90.00" type="DEFAULT_VEHTYPE" speed="13.26" pos="49.98" lane="1/2to2/2_0" slope="0.00"/>
        <vehicle id="4" x="601.65" y="37.28" angle="180.00" type="DEFAULT_VEHTYPE" speed="10.00" pos="37.28" lane="3/0to3/1_0" slope="0.00"/>
        <vehicle id="5" x="28.40" y="198.35" angle="90.00" type="DEFAULT_VEHTYPE" speed="9.41" pos="28.40" lane="0/1to1/1_0" slope="0.00"/>
        <vehicle id="6" x="398.35" y="576.93" angle="0.00" type="DEFAULT_VEHTYPE" speed="6.37" pos="18.32" lane="2/3to2/2_0" slope="0.00"/>
        <vehicle id="7" x="11.64" y="398.35" angle="90.00" type="DEFAULT_VEHTYPE" speed="4.11" pos="11.64" lane="0/2to1/2_0" slope="0.00"/>
        <vehicle id="8" x="412.23" y="198.35" angle="90.00" type="DEFAULT_VEHTYPE" speed="2.38" pos="7.48" lane="2/1to3/1_0" slope="0.00"/>
        <vehicle id="9" x="601.65" y="5.10" angle="180.00" type="DEFAULT_VEHTYPE" speed="0.00" pos="5.10" lane="3/0to3/1_0" slope="0.00"/>
    </timestep>
    <timestep time="10.00">
        <vehicle id="0" x="99.71" y="401.65" angle="-90.00" type="DEFAULT_VEHTYPE" speed="13.12" pos="95.54" lane="1/2to0/2_0" slope="0.00"/>
        <vehicle id="1" x="691.94" y="598.35" angle="90.00" type="DEFAULT_VEHTYPE" speed="13.00" pos="87.19" lane="3/3to4/3_0" slope="0.00"/>
        <vehicle id="10" x="609.85" y="398.35" angle="90.00" type="DEFAULT_VEHTYPE" speed="0.00" pos="5.10" lane="3/2to4/2_0" slope="0.00"/>
        <vehicle id="2" x="480.40" y="198.35" angle="90.00" type="DEFAULT_VEHTYPE" speed="12.65" pos="75.65" lane="2/1to3/1_0" slope="0.00"/>
        <vehicle id="3" x="268.23" y="398.35" angle="90.00" type="DEFAULT_VEHTYPE" speed="13.50" pos="63.48" lane="1/2to2/2_0" slope="0.00"/>
        <vehicle id="4" x="601.65" y="49.13" angle="180.00" type="DEFAULT_VEHTYPE" speed="11.85" pos="49.13" lane="3/0to3/1_0" slope="0.00"/>
        <vehicle id="5" x="40.19" y="198.35" angle="90.00" type="DEFAULT_VEHTYPE" speed="11.79" pos="40.19" lane="0/1to1/1_0" slope="0.00"/>
        <vehicle id="6" x="398.35" y="569.20" angle="0.00" type="DEFAULT_VEHTYPE" speed="7.73" pos="26.05" lane="2/3to2/2_0" slope="0.00"/>
        <vehicle id="7" x="18.11" y="398.35" angle="90.00" type="DEFAULT_VEHTYPE" speed="6.47" pos="18.11" lane="0/2to1/2_0" slope="0.00"/>
        <vehicle id="8" x="416.00" y="198.35" angle="90.00" type="DEFAULT_VEHTYPE" speed="3.77" pos="11.25" lane="2/1to3/1_0" slope="0.00"/>
        <vehicle id="9" x="601.65" y="7.06" angle="180.00" type="DEFAULT_VEHTYPE" speed="1.96" pos="7.06" lane="3/0to3/1_0" slope="0.00"/>
    </timestep>
    <timestep time="11.00">
        <vehicle id="0" x="86.65" y="401.65" angle="-90.00" type="DEFAULT_VEHTYPE" speed="13.07" pos="108.60" lane="1/2to0/2_0" slope="0.00"/>
        <vehicle id="1" x="705.64" y="598.35" angle="90.00" type="DEFAULT_VEHTYPE" speed="13.70" pos="100.89" lane="3/3to4/3_0" slope="0.00"/>
        <vehicle id="10" x="612.01" y="398.35" angle="90.00" type="DEFAULT_VEHTYPE" speed="2.16" pos="7.26" lane="3/2to4/2_0" slope="0.00"/>
        <vehicle id="11" x="590.15" y="401.65" angle="-90.00" type="DEFAULT_VEHTYPE" speed="0.00" pos="5.10" lane="3/2to2/2_0" slope="0.00"/>
        <vehicle id="2" x="493.94" y="198.35" angle="90.00" type="DEFAULT_VEHTYPE" speed="13.54" pos="89.19" lane="2/1to3/1_0" slope="0.00"/>
        <vehicle id="3" x="281.42" y="398.35" angle="90.00" type="DEFAULT_VEHTYPE" speed="13.19" pos="76.67" lane="1/2to2/2_0" slope="0.00"/>
        <vehicle id="4" x="601.65" y="62.94" angle="180.00" type="DEFAULT_VEHTYPE" speed="13.81" pos="62.94" lane="3/0to3/1_0" slope="0.00"/>
        <vehicle id="5" x="53.86" y="198.35" angle="90.00" type="DEFAULT_VEHTYPE" speed="13.67" pos="53.86" lane="0/1to1/1_0" slope="0.00"/>
        <vehicle id="6" x="398.35" y="560.16" angle="0.00" type="DEFAULT_VEHTYPE" speed="9.04" pos="35.09" lane="2/3to2/2_0" slope="0.00"/>
        <vehicle id="7" x="26.77" y="398.35" angle="90.00" type="DEFAULT_VEHTYPE" speed="8.66" pos="26.77" lane="0/2to1/2_0" slope="0.00"/>
        <vehicle id="8" x="422.33" y="198.35" angle="90.00" type="DEFAULT_VEHTYPE" speed="6.33" pos="17.58" lane="2/1to3/1_0" slope="0.00"/>
        <vehicle id="9" x="601.65" y="10.41" angle="180.00" type="DEFAULT_VEHTYPE" speed="3.35" pos="10.41" lane="3/0to3/1_0" slope="0.00"/>
    </timestep>
    <timestep time="12.00">
        <vehicle id="0" x="73.02" y="401.65" angle="-90.00" type="DEFAULT_VEHTYPE" speed="13.63" pos="122.23" lane="1/2to0/2_0" slope="0.00"/>
        <vehicle id="1" x="719.31" y="598.35" angle="90.00" type="DEFAULT_VEHTYPE" speed="13.67" pos="114.56" lane="3/3to4/3_0" slope="0.00"/>
        <vehicle id="10" x="615.97" y="398.35" angle="90.00" type="DEFAULT_VEHTYPE" speed="3.96" pos="11.22" lane="3/2to4/2_0" slope="0.00"/>
        <vehicle id="11" x="588.06" y="401.65" angle="-90.00" type="DEFAULT_VEHTYPE" speed="2.09" pos="7.19" lane="3/2to2/2_0" slope="0.00"/>
        <vehicle id="12" x="390.15" y="401.65" angle="-90.00" type="DEFAULT_VEHTYPE" speed="0.00" pos="5.10" lane="2/2to1/2_0" slope="0.00"/>
        <vehicle id="2" x="507.74" y="198.35" angle="90.00" type="DEFAULT_VEHTYPE" speed="13.80" pos="102.99" lane="2/1to3/1_0" slope="0.00"/>
        <vehicle id="3" x="294.38" y="398.35" angle="90.00" type="DEFAULT_VEHTYPE" speed="12.96" pos="89.63" lane="1/2to2/2_0" slope="0.00"/>
        <vehicle id="4" x="601.65" y="76.46" angle="180.00" type="DEFAULT_VEHTYPE" speed="13.52" pos="76.46" lane="3/0to3/1_0" slope="0.00"/>
        <vehicle id="5" x="67.48" y="198.35" angle="90.00" type="DEFAULT_VEHTYPE" speed="13.62" pos="67.48" lane="0/1to1/1_0" slope="0.00"/>
        <vehicle id="6" x="398.35" y="549.41" angle="0.00" type="DEFAULT_VEHTYPE" speed="10.76" pos="45.84" lane="2/3to2/2_0" slope="0.00"/>
        <vehicle id="7" x="37.48" y="398.35" angle="90.00" type="DEFAULT_VEHTYPE" speed="10.71" pos="37.48" lane="0/2to1/2_0" slope="0.00"/>
        <vehicle id="8" x="431.20" y="198.35" angle="90.00" type="DEFAULT_VEHTYPE" speed="8.87" pos="26.45" lane="2/1to3/1_0" slope="0.00"/>
        <vehicle id="9" x="601.65" y="15.91" angle="180.00" type="DEFAULT_VEHTYPE" speed="5.50" pos="15.91" lane="3/0to3/1_0" slope="0.00"/>
    </timestep>
    <timestep time="13.00">
        <vehicle id="0" x="59.78" y="401.65" angle="-90.00" type="DEFAULT_VEHTYPE" speed="13.23" pos="135.47" lane="1/2to0/2_0" slope="0.00"/>
        <vehicle id="1" x="732.13" y="598.35" angle="90.00" type="DEFAULT_VEHTYPE" speed="12.83" pos="127.38" lane="3/3to4/3_0" slope="0.00"/>
        <vehicle id="10" x="621.72" y="398.35" angle="90.00" type="DEFAULT_VEHTYPE" speed="5.75" pos="16.97" lane="3/2to4/2_0" slope="0.00"/>
        <vehicle id="11" x="584.57" y="401.65" angle="-90.00" type="DEFAULT_VEHTYPE" speed="3.49" pos="10.68" lane="3/2to2/2_0" slope="0.00"/>
        <vehicle id="12" x="388.19" y="401.65" angle="-90.00" type="DEFAULT_VEHTYPE" speed="1.96" pos="7.06" lane="2/2to1/2_0" slope="0.00"/>
        <vehicle id="13" x="398.35" y="390.15" angle="0.00" type="DEFAULT_VEHTYPE" speed="0.00" pos="5.10" lane="2/2to2/1_0" slope="0.00"/>
        <vehicle id="2" x="521.10" y="198.35" angle="90.00" type="DEFAULT_VEHTYPE" speed="13.36" pos="116.35" lane="2/1to3/1_0" slope="0.00"/>
        <vehicle id="3" x="307.80" y="398.35" angle="90.00" type="DEFAULT_VEHTYPE" speed="13.43" pos="103.05" lane="1/2to2/2_0" slope="0.00"/>
        <vehicle id="4" x="601.65" y="90.33" angle="180.00" type="DEFAULT_VEHTYPE" speed="13.87" pos="90.33" lane="3/0to3/1_0" slope="0.00"/>
        <vehicle id="5" x="80.99" y="198.35" angle="90.00" type="DEFAULT_VEHTYPE" speed="13.51" pos="80.99" lane="0/1to1/1_0" slope="0.00"/>
        <vehicle id="6" x="398.35" y="536.18" angle="0.00" type="DEFAULT_VEHTYPE" speed="13.22" pos="59.07" lane="2/3to2/2_0" slope="0.00"/>
        <vehicle id="7" x="49.65" y="398.35" angle="90.00" type="DEFAULT_VEHTYPE" speed="12.17" pos="49.65" lane="0/2to1/2_0" slope="0.00"/>
        <vehicle id="8" x="441.91" y="198.35" angle="90.00" type="DEFAULT_VEHTYPE" speed="10.71" pos="37.16" lane="2/1to3/1_0" slope="0.00"/>
        <vehicle id="9" x="601.65" y="22.73" angle="180.00" type="DEFAULT_VEHTYPE" speed="6.83" pos="22.73" lane="3/0to3/1_0" slope="0.00"/>
    </timestep>
    <timestep time="14.00">
        <vehicle id="0" x="46.44" y="401.65" angle="-90.00" type="DEFAULT_VEHTYPE" speed="13.35" pos="148.81" lane="1/2to0/2_0" slope="0.00"/>
        <vehicle id="1" x="745.11" y="598.35" angle="90.00" type="DEFAULT_VEHTYPE" speed="12.98" pos="140.36" lane="3/3to4/3_0" slope="0.00"/>
        <vehicle id="10" x="629.93" y="398.35" angle="90.00" type="DEFAULT_VEHTYPE" speed="8.21" pos="25.18" lane="3/2to4/2_0" slope="0.00"/>
        <vehicle id="11" x="579.08" y="401.65" angle="-90.00" type="DEFAULT_VEHTYPE" speed="5.48" pos="16.17" lane="3/2to2/2_0" slope="0.00"/>
        <vehicle id="12" x="384.49" y="401.65" angle="-90.00" type="DEFAULT_VEHTYPE" speed="3.70" pos="10.76" lane="2/2to1/2_0" slope="0.00"/>
        <vehicle id="13" x="398.35" y="388.57" angle="0.00" type="DEFAULT_VEHTYPE" speed="1.58" pos="6.68" lane="2/2to2/1_0" slope="0.00"/>
        <vehicle id="14" x="5.10" y="398.35" angle="90.00" type="DEFAULT_VEHTYPE" speed="0.00" pos="5.10" lane="0/2to1/2_0" slope="0.00"/>
        <vehicle id="2" x="533.86" y="198.35" angle="90.00" type="DEFAULT_VEHTYPE" speed="12.76" pos="129.11" lane="2/1to3/1_0" slope="0.00"/>
        <vehicle id="3" x="320.96" y="398.35" angle="90.00" type="DEFAULT_VEHTYPE" speed="13.15" pos="116.21" lane="1/2to2/2_0" slope="0.00"/>
        <vehicle id="4" x="601.65" y="103.85" angle="180.00" type="DEFAULT_VEHTYPE" speed="13.51" pos="103.85" lane="3/0to3/1_0" slope="0.00"/>
        <vehicle id="5" x="94.36" y="198.35" angle="90.00" type="DEFAULT_VEHTYPE" speed="13.37" pos="94.36" lane="0/1to1/1_0" slope="0.00"/>
        <vehicle id="6" x="398.35" y="522.73" angle="0.00" type="DEFAULT_VEHTYPE" speed="13.45" pos="72.52" lane="2/3to2/2_0" slope="0.00"/>
        <vehicle id="7" x="62.65" y="398.35" angle="90.00" type="DEFAULT_VEHTYPE" speed="12.99" pos="62.65" lane="0/2to1/2_0" slope="0.00"/>
        <vehicle id="8" x="454.62" y="198.35" angle="90.00" type="DEFAULT_VEHTYPE" speed="12.72" pos="49.87" lane="2/1to3/1_0" slope="0.00"/>
        <vehicle id="9" x="601.65" y="30.90" angle="180.00" type="DEFAULT_VEHTYPE" speed="8.16" pos="30.90" lane="3/0to3/1_0" slope="0.00"/>
    </timestep>
    <timestep time="15.00">
        <vehicle id="0" x="32.90" y="401.65" angle="-90.00" type="DEFAULT_VEHTYPE" speed="13.53" pos="162.35" lane="1/2to0/2_0" slope="0.00"/>
        <vehicle id="1" x="758.08" y="598.35" angle="90.00" type="DEFAULT_VEHTYPE" speed="12.97" pos="153.33" lane="3/3to4/3_0" slope="0.00"/>
        <vehicle id="10" x="639.47" y="398.35" angle="90.00" type="DEFAULT_VEHTYPE" speed="9.54" pos="34.72" lane="3/2to4/2_0" slope="0.00"/>
        <vehicle id="11" x="572.10" y="401.65" angle="-90.00" type="DEFAULT_VEHTYPE" speed="6.99" pos="23.15" lane="3/2to2/2_0" slope="0.00"/>
        <vehicle id="12" x="378.39" y="401.65" angle="-90.00" type="DEFAULT_VEHTYPE" speed="6.10" pos="16.86" lane="2/2to1/2_0" slope="0.00"/>
        <vehicle id="13" x="398.35" y="385.56" angle="0.00" type="DEFAULT_VEHTYPE" speed="3.01" pos="9.69" lane="2/2to2/1_0" slope="0.00"/>
        <vehicle id="14" x="7.19" y="398.35" angle="90.00" type="DEFAULT_VEHTYPE" speed="2.09" pos="7.19" lane="0/2to1/2_0" slope="0.00"/>
        <vehicle id="15" x="409.85" y="198.35" angle="90.00" type="DEFAULT_VEHTYPE" speed="0.00" pos="5.10" lane="2/1to3/1_0" slope="0.00"/>
        <vehicle id="2" x="546.83" y="198.35" angle="90.00" type="DEFAULT_VEHTYPE" speed="12.97" pos="142.08" lane="2/1to3/1_0" slope="0.00"/>
        <vehicle id="3" x="334.67" y="398.35" angle="90.00" type="DEFAULT_VEHTYPE" speed="13.72" pos="129.92" lane="1/2to2/2_0" slope="0.00"/>
        <vehicle id="4" x="601.65" y="117.27" angle="180.00" type="DEFAULT_VEHTYPE" speed="13.42" pos="117.27" lane="3/0to3/1_0" slope="0.00"/>
        <vehicle id="5" x="107.63" y="198.35" angle="90.00" type="DEFAULT_VEHTYPE" speed="13.28" pos="107.63" lane="0/1to1/1_0" slope="0.00"/>
        <vehicle id="6" x="398.35" y="508.89" angle="0.00" type="DEFAULT_VEHTYPE" speed="13.84" pos="86.36" lane="2/3to2/2_0" slope="0.00"/>
        <vehicle id="7" x="75.67" y="398.35" angle="90.00" type="DEFAULT_VEHTYPE" speed="13.02" pos="75.67" lane="0/2to1/2_0" slope="0.00"/>
        <vehicle id="8" x="468.36" y="198.35" angle="90.00" type="DEFAULT_VEHTYPE" speed="13.74" pos="63.61" lane="2/1to3/1_0" slope="0.00"/>
        <vehicle id="9" x="601.65" y="40.51" angle="180.00" type="DEFAULT_VEHTYPE" speed="9.62" pos="40.51" lane="3/0to3/1_0" slope="0.00"/>
    </timestep>
    <timestep time="16.00">
        <vehicle id="0" x="19.56" y="401.65" angle="-90.00" type="DEFAULT_VEHTYPE" speed="13.34" pos="175.69" lane="1/2to0/2_0" slope="0.00"/>
        <vehicle id="1" x="771.22" y="598.35" angle="90.00" type="DEFAULT_VEHTYPE" speed="13.13" pos="166.47" lane="3/3to4/3_0" slope="0.00"/>
        <vehicle id="10" x="650.90" y="398.35" angle="90.00" type="DEFAULT_VEHTYPE" speed="11.43" pos="46.15" lane="3/2to4/2_0" slope="0.00"/>
        <vehicle id="11" x="562.53" y="401.65" angle="-90.00" type="DEFAULT_VEHTYPE" speed="9.57" pos="32.72" lane="3/2to2/2_0" slope="0.00"/>
        <vehicle id="12" x="370.97" y="401.65" angle="-90.00" type="DEFAULT_VEHTYPE" speed="7.42" pos="24.28" lane="2/2to1/2_0" slope="0.00"/>
        <vehicle id="13" x="398.35" y="381.10" angle="0.00" type="DEFAULT_VEHTYPE" speed="4.46" pos="14.15" lane="2/2to2/1_0" slope="0.00"/>
        <vehicle id="14" x="10.82" y="398.35" angle="90.00" type="DEFAULT_VEHTYPE" speed="3.62" pos="10.82" lane="0/2to1/2_0" slope="0.00"/>
        <vehicle id="15" x="412.09" y="198.35" angle="90.00" type="DEFAULT_VEHTYPE" speed="2.24" pos="7.34" lane="2/1to3/1_0" slope="0.00"/>
        <vehicle id="16" x="201.65" y="209.85" angle="180.00" type="DEFAULT_VEHTYPE" speed="0.00" pos="5.10" lane="1/1to1/2_0" slope="0.00"/>
        <vehicle id="2" x="559.85" y="198.35" angle="90.00" type="DEFAULT_VEHTYPE" speed="13.01" pos="155.10" lane="2/1to3/1_0" slope="0.00"/>
        <vehicle id="3" x="347.80" y="398.35" angle="90.00" type="DEFAULT_VEHTYPE" speed="13.13" pos="143.05" lane="1/2to2/2_0" slope="0.00"/>
        <vehicle id="4" x="601.65" y="131.03" angle="180.00" type="DEFAULT_VEHTYPE" speed="13.77" pos="131.03" lane="3/0to3/1_0" slope="0.00"/>
        <vehicle id="5" x="120.42" y="198.35" angle="90.00" type="DEFAULT_VEHTYPE" speed="12.79" pos="120.42" lane="0/1to1/1_0" slope="0.00"/>
        <vehicle id="6" x="398.35" y="495.82" angle="0.00" type="DEFAULT_VEHTYPE" speed="13.07" pos="99.43" lane="2/3to2/2_0" slope="0.00"/>
        <vehicle id="7" x="88.34" y="398.35" angle="90.00" type="DEFAULT_VEHTYPE" speed="12.67" pos="88.34" lane="0/2to1/2_0" slope="0.00"/>
        <vehicle id="8" x="481.77" y="198.35" angle="90.00" type="DEFAULT_VEHTYPE" speed="13.41" pos="77.02" lane="2/1to3/1_0" slope="0.00"/>
        <vehicle id="9" x="601.65" y="51.98" angle="180.00" type="DEFAULT_VEHTYPE" speed="11.47" pos="51.98" lane="3/0to3/1_0" slope="0.00"/>
    </timestep>
    <timestep time="17.00">
        <vehicle id="0" x="8.27" y="401.65" angle="-90.00" type="DEFAULT_VEHTYPE" speed="11.29" pos="186.98" lane="1/2to0/2_0" slope="0.00"/>
        <vehicle id="1" x="783.94" y="598.35" angle="90.00" type="DEFAULT_VEHTYPE" speed="12.73" pos="179.19" lane="3/3to4/3_0" slope="0.00"/>
        <vehicle id="10" x="663.62" y="398.35" angle="90.00" type="DEFAULT_VEHTYPE" speed="12.72" pos="58.87" lane="3/2to4/2_0" slope="0.00"/>
        <vehicle id="11" x="550.90" y="401.65" angle="-90.00" type="DEFAULT_VEHTYPE" speed="11.63" pos="44.35" lane="3/2to2/2_0" slope="0.00"/>
        <vehicle id="12" x="361.09" y="401.65" angle="-90.00" type="DEFAULT_VEHTYPE" speed="9.88" pos="34.16" lane="2/2to1/2_0" slope="0.00"/>
        <vehicle id="13" x="398.35" y="375.15" angle="0.00" type="DEFAULT_VEHTYPE" speed="5.95" pos="20.10" lane="2/2to2/1_0" slope="0.00"/>
        <vehicle id="14" x="17.03" y="398.35" angle="90.00" type="DEFAULT_VEHTYPE" speed="6.21" pos="17.03" lane="0/2to1/2_0" slope="0.00"/>
        <vehicle id="15" x="416.71" y="198.35" angle="90.00" type="DEFAULT_VEHTYPE" speed="4.62" pos="11.96" lane="2/1to3/1_0" slope="0.00"/>
        <vehicle id="16" x="201.65" y="211.38" angle="180.00" type="DEFAULT_VEHTYPE" speed="1.53" pos="6.63" lane="1/1to1/2_0" slope="0.00"/>
        <vehicle id="17" x="190.15" y="601.65" angle="-90.00" type="DEFAULT_VEHTYPE" speed="0.00" pos="5.10" lane="1/3to0/3_0" slope="0.00"/>
        <vehicle id="2" x="572.10" y="198.35" angle="90.00" type="DEFAULT_VEHTYPE" speed="12.25" pos="167.35" lane="2/1to3/1_0" slope="0.00"/>
        <vehicle id="3" x="361.09" y="398.35" angle="90.00" type="DEFAULT_VEHTYPE" speed="13.29" pos="156.34" lane="1/2to2/2_0" slope="0.00"/>
        <vehicle id="4" x="601.65" y="144.93" angle="180.00" type="DEFAULT_VEHTYPE" speed="13.90" pos="144.93" lane="3/0to3/1_0" slope="0.00"/>
        <vehicle id="5" x="133.46" y="198.35" angle="90.00" type="DEFAULT_VEHTYPE" speed="13.04" pos="133.46" lane="0/1to1/1_0" slope="0.00"/>
        <vehicle id="6" x="398.35" y="483.11" angle="0.00" type="DEFAULT_VEHTYPE" speed="12.71" pos="112.14" lane="2/3to2/2_0" slope="0.00"/>
        <vehicle id="7" x="101.61" y="398.35" angle="90.00" type="DEFAULT_VEHTYPE" speed="13.27" pos="101.61" lane="0/2to1/2_0" slope="0.00"/>
        <vehicle id="8" x="495.22" y="198.35" angle="90.00" type="DEFAULT_VEHTYPE" speed="13.45" pos="90.47" lane="2/1to3/1_0" slope="0.00"/>
        <vehicle id="9" x="601.65" y="65.44" angle="180.00" type="DEFAULT_VEHTYPE" speed="13.46" pos="65.44" lane="3/0to3/1_0" slope="0.00"/>
    </timestep>
    <timestep time="18.00">
        <vehicle id="0" x="-1.00" y="399.02" angle="-42.07" type="DEFAULT_VEHTYPE" speed="11.89" pos="3.62" lane=":0/2_0_0" slope="0.00"/>
        <vehicle id="1" x="796.55" y="598.35" angle="90.00" type="DEFAULT_VEHTYPE" speed="12.60" pos="191.80" lane="3/3to4/3_0" slope="0.00"/>
        <vehicle id="10" x="676.58" y="398.35" angle="90.00" type="DEFAULT_VEHTYPE" speed="12.96" pos="71.83" lane="3/2to4/2_0" slope="0.00"/>
        <vehicle id="11" x="537.58" y="401.65" angle="-90.00" type="DEFAULT_VEHTYPE" speed="13.32" pos="57.67" lane="3/2to2/2_0" slope="0.00"/>
        <vehicle id="12" x="349.09" y="401.65" angle="-90.00" type="DEFAULT_VEHTYPE" speed="12.00" pos="46.16" lane="2/2to1/2_0" slope="0.00"/>
        <vehicle id="13" x="398.35" y="367.65" angle="0.00" type="DEFAULT_VEHTYPE" speed="7.51" pos="27.60" lane="2/2to2/1_0" slope="0.00"/>
        <vehicle id="14" x="25.26" y="398.35" angle="90.00" type="DEFAULT_VEHTYPE" speed="8.23" pos="25.26" lane="0/2to1/2_0" slope="0.00"/>
        <vehicle id="15" x="423.30" y="198.35" angle="90.00" type="DEFAULT_VEHTYPE" speed="6.59" pos="18.55" lane="2/1to3/1_0" slope="0.00"/>
        <vehicle id="16" x="201.65" y="215.31" angle="180.00" type="DEFAULT_VEHTYPE" speed="3.93" pos="10.56" lane="1/1to1/2_0" slope="0.00"/>
        <vehicle id="17" x="188.30" y="601.65" angle="-90.00" type="DEFAULT_VEHTYPE" speed="1.85" pos="6.95" lane="1/3to0/3_0" slope="0.00"/>
        <vehicle id="18" x="598.35" y="390.15" angle="0.00" type="DEFAULT_VEHTYPE" speed="0.00" pos="5.10" lane="3/2to3/1_0" slope="0.00"/>
        <vehicle id="2" x="580.93" y="198.35" angle="90.00" type="DEFAULT_VEHTYPE" speed="8.84" pos="176.18" lane="2/1to3/1_0" slope="0.00"/>
        <vehicle id="3" x="373.46" y="398.35" angle="90.00" type="DEFAULT_VEHTYPE" speed="12.37" pos="168.71" lane="1/2to2/2_0" slope="0.00"/>
        <vehicle id="4" x="601.65" y="158.40" angle="180.00" type="DEFAULT_VEHTYPE" speed="13.47" pos="158.40" lane="3/0to3/1_0" slope="0.00"/>
        <vehicle id="5" x="147.09" y="198.35" angle="90.00" type="DEFAULT_VEHTYPE" speed="13.63" pos="147.09" lane="0/1to1/1_0" slope="0.00"/>
        <vehicle id="6" x="398.35" y="469.41" angle="0.00" type="DEFAULT_VEHTYPE" speed="13.70" pos="125.84" lane="2/3to2/2_0" slope="0.00"/>
        <vehicle id="7" x="115.09" y="398.35" angle="90.00" type="DEFAULT_VEHTYPE" speed="13.48" pos="115.09" lane="0/2to1/2_0" slope="0.00"/>
        <vehicle id="8" x="507.90" y="198.35" angle="90.00" type="DEFAULT_VEHTYPE" speed="12.68" pos="103.15" lane="2/1to3/1_0" slope="0.00"/>
        <vehicle id="9" x="601.65" y="78.25" angle="180.00" type="DEFAULT_VEHTYPE" speed="12.80" pos="78.25" lane="3/0to3/1_0" slope="0.00"/>
    </timestep>
    <timestep time="19.00">
        <vehicle id="0" x="10.02" y="398.35" angle="90.00" type="DEFAULT_VEHTYPE" speed="11.22" pos="10.02" lane="0/2to1/2_0" slope="0.00"/>
        <vehicle id="1" x="794.54" y="601.65" angle="-90.00" type="DEFAULT_VEHTYPE" speed="13.73" pos="5.46" lane="4/3to3/3_0" slope="0.00"/>
        <vehicle id="10" x="689.88" y="398.35" angle="90.00" type="DEFAULT_VEHTYPE" speed="13.29" pos="85.13" lane="3/2to4/2_0" slope="0.00"/>
        <vehicle id="11" x="523.92" y="401.65" angle="-90.00" type="DEFAULT_VEHTYPE" speed="13.65" pos="71.33" lane="3/2to2/2_0" slope="0.00"/>
        <vehicle id="12" x="335.50" y="401.65" angle="-90.00" type="DEFAULT_VEHTYPE" speed="13.59" pos="59.75" lane="2/2to1/2_0" slope="0.00"/>
        <vehicle id="13" x="398.35" y="358.76" angle="0.00" type="DEFAULT_VEHTYPE" speed="8.88" pos="36.49" lane="2/2to2/1_0" slope="0.00"/>
        <vehicle id="14" x="35.76" y="398.35" angle="90.00" type="DEFAULT_VEHTYPE" speed="10.50" pos="35.76" lane="0/2to1/2_0" slope="0.00"/>
        <vehicle id="15" x="431.46" y="198.35" angle="90.00" type="DEFAULT_VEHTYPE" speed="8.16" pos="26.71" lane="2/1to3/1_0" slope="0.00"/>
        <vehicle id="16" x="201.65" y="221.56" angle="180.00" type="DEFAULT_VEHTYPE" speed="6.24" pos="16.81" lane="1/1to1/2_0" slope="0.00"/>
        <vehicle id="17" x="185.05" y="601.65" angle="-90.00" type="DEFAULT_VEHTYPE" speed="3.25" pos="10.20" lane="1/3to0/3_0" slope="0.00"/>