<?xml version="1.0" encoding="UTF-8"?>

<!-- generated on Thu Oct 31 14:50:01 2013 by SUMO sumo Version 0.18.0
<?xml version="1.0" encoding="UTF-8"?>

<configuration xmlns:xsi="http://www.w3.org/2001/XMLSchema-instance" xsi:noNamespaceSchemaLocation="http://sumo.sf.net/xsd/sumoConfiguration.xsd">

    <input>
        <net-file value="test.net.xml"/>
        <route-files value="test.rou.xml"/>
        <additional-files value="test.rerouter.xml"/>
    </input>

    <output>
        <fcd-output value="test-50.fcd.xml"/>
        <save-state.prefix value="state"/>
    </output>

    <time>
        <begin value="0"/>
        <end value="800"/>
    </time>

    <gui_only>
        <gui-settings-file value="test.settings.xml"/>
    </gui_only>

</configuration>
-->

<fcd-export>
    <timestep time="0.00">
        <vehicle id="0" x="390.15" y="201.65" angle="-90.00" type="DEFAULT_VEHTYPE" speed="0.00" pos="5.10" lane="2/1to1/1_0" slope="0.00"/>
    </timestep>
    <timestep time="1.00">
        <vehicle id="0" x="388.71" y="201.65" angle="-90.00" type="DEFAULT_VEHTYPE" speed="1.44" pos="6.54" lane="2/1to1/1_0" slope="0.00"/>
        <vehicle id="1" x="198.35" y="794.90" angle="0.00" type="DEFAULT_VEHTYPE" speed="0.00" pos="5.10" lane="1/4to1/3_0" slope="0.00"/>
    </timestep>
    <timestep time="2.00">
        <vehicle id="0" x="385.59" y="201.65" angle="-90.00" type="DEFAULT_VEHTYPE" speed="3.12" pos="9.66" lane="2/1to1/1_0" slope="0.00"/>
        <vehicle id="1" x="198.35" y="792.36" angle="0.00" type="DEFAULT_VEHTYPE" speed="2.54" pos="7.64" lane="1/4to1/3_0" slope="0.00"/>
        <vehicle id="2" x="198.35" y="590.15" angle="0.00" type="DEFAULT_VEHTYPE" speed="0.00" pos="5.10" lane="1/3to1/2_0" slope="0.00"/>
    </timestep>
    <timestep time="3.00">
        <vehicle id="0" x="380.52" y="201.65" angle="-90.00" type="DEFAULT_VEHTYPE" speed="5.08" pos="14.73" lane="2/1to1/1_0" slope="0.00"/>
        <vehicle id="1" x="198.35" y="787.99" angle="0.00" type="DEFAULT_VEHTYPE" speed="4.37" pos="12.01" lane="1/4to1/3_0" slope="0.00"/>
        <vehicle id="2" x="198.35" y="587.61" angle="0.00" type="DEFAULT_VEHTYPE" speed="2.54" pos="7.64" lane="1/3to1/2_0" slope="0.00"/>
        <vehicle id="3" x="598.35" y="190.15" angle="0.00" type="DEFAULT_VEHTYPE" speed="0.00" pos="5.10" lane="3/1to3/0_0" slope="0.00"/>
    </timestep>
    <timestep time="4.00">
        <vehicle id="0" x="373.81" y="201.65" angle="-90.00" type="DEFAULT_VEHTYPE" speed="6.71" pos="21.44" lane="2/1to1/1_0" slope="0.00"/>
        <vehicle id="1" x="198.35" y="781.33" angle="0.00" type="DEFAULT_VEHTYPE" speed="6.65" pos="18.67" lane="1/4to1/3_0" slope="0.00"/>
        <vehicle id="2" x="198.35" y="583.17" angle="0.00" type="DEFAULT_VEHTYPE" speed="4.43" pos="12.08" lane="1/3to1/2_0" slope="0.00"/>
        <vehicle id="3" x="598.35" y="188.52" angle="0.00" type="DEFAULT_VEHTYPE" speed="1.63" pos="6.73" lane="3/1to3/0_0" slope="0.00"/>
        <vehicle id="4" x="401.65" y="609.85" angle="180.00" type="DEFAULT_VEHTYPE" speed="0.00" pos="5.10" lane="2/3to2/4_0" slope="0.00"/>
    </timestep>
    <timestep time="5.00">
        <vehicle id="0" x="364.50" y="201.65" angle="-90.00" type="DEFAULT_VEHTYPE" speed="9.30" pos="30.75" lane="2/1to1/1_0" slope="0.00"/>
        <vehicle id="1" x="198.35" y="772.96" angle="0.00" type="DEFAULT_VEHTYPE" speed="8.38" pos="27.04" lane="1/4to1/3_0" slope="0.00"/>
        <vehicle id="2" x="198.35" y="576.74" angle="0.00" type="DEFAULT_VEHTYPE" speed="6.43" pos="18.51" lane="1/3to1/2_0" slope="0.00"/>
        <vehicle id="3" x="598.35" y="184.88" angle="0.00" type="DEFAULT_VEHTYPE" speed="3.64" pos="10.37" lane="3/1to3/0_0" slope="0.00"/>
        <vehicle id="4" x="401.65" y="611.71" angle="180.00" type="DEFAULT_VEHTYPE" speed="1.86" pos="6.96" lane="2/3to2/4_0" slope="0.00"/>
        <vehicle id="5" x="190.15" y="201.65" angle="-90.00" type="DEFAULT_VEHTYPE" speed="0.00" pos="5.10" lane="1/1to0/1_0" slope="0.00"/>
    </timestep>
    <timestep time="6.00">
        <vehicle id="0" x="352.94" y="201.65" angle="-90.00" type="DEFAULT_VEHTYPE" speed="11.56" pos="42.31" lane="2/1to1/1_0" slope="0.00"/>
        <vehicle id="1" x="198.35" y="762.06" angle="0.00" type="DEFAULT_VEHTYPE" speed="10.90" pos="37.94" lane="1/4to1/3_0" slope="0.00"/>
        <vehicle id="2" x="198.35" y="568.85" angle="0.00" type="DEFAULT_VEHTYPE" speed="7.89" pos="26.40" lane="1/3to1/2_0" slope="0.00"/>
        <vehicle id="3" x="598.35" y="179.05" angle="0.00" type="DEFAULT_VEHTYPE" speed="5.83" pos="16.20" lane="3/1to3/0_0" slope="0.00"/>
        <vehicle id="4" x="401.65" y="615.29" angle="180.00" type="DEFAULT_VEHTYPE" speed="3.58" pos="10.54" lane="2/3to2/4_0" slope="0.00"/>
        <vehicle id="5" x="187.61" y="201.65" angle="-90.00" type="DEFAULT_VEHTYPE" speed="2.54" pos="7.64" lane="1/1to0/1_0" slope="0.00"/>
        <vehicle id="6" x="609.85" y="598.35" angle="90.00" type="DEFAULT_VEHTYPE" speed="0.00" pos="5.10" lane="3/3to4/3_0" slope="0.00"/>
    </timestep>
    <timestep time="7.00">
        <vehicle id="0" x="339.71" y="201.65" angle="-90.00" type="DEFAULT_VEHTYPE" speed="13.23" pos="55.54" lane="2/1to1/1_0" slope="0.00"/>
        <vehicle id="1" x="198.35" y="748.96" angle="0.00" type="DEFAULT_VEHTYPE" speed="13.10" pos="51.04" lane="1/4to1/3_0" slope="0.00"/>
        <vehicle id="2" x="198.35" y="559.19" angle="0.00" type="DEFAULT_VEHTYPE" speed="9.67" pos="36.06" lane="1/3to1/2_0" slope="0.00"/>
        <vehicle id="3" x="598.35" y="171.85" angle="0.00" type="DEFAULT_VEHTYPE" speed="7.20" pos="23.40" lane="3/1to3/0_0" slope="0.00"/>
        <vehicle id="4" x="401.65" y="620.39" angle="180.00" type="DEFAULT_VEHTYPE" speed="5.10" pos="15.64" lane="2/3to2/4_0" slope="0.00"/>
        <vehicle id="5" x="183.62" y="201.65" angle="-90.00" type="DEFAULT_VEHTYPE" speed="3.99" pos="11.63" lane="1/1to0/1_0" slope="0.00"/>
        <vehicle id="6" x="611.93" y="598.35" angle="90.00" type="DEFAULT_VEHTYPE" speed="2.08" pos="7.18" lane="3/3to4/3_0" slope="0.00"/>
        <vehicle id="7" x="601.65" y="409.85" angle="180.00" type="DEFAULT_VEHTYPE" speed="0.00" pos="5.10" lane="3/2to3/3_0" slope="0.00"/>
    </timestep>
    <timestep time="8.00">
        <vehicle id="0" x="326.52" y="201.65" angle="-90.00" type="DEFAULT_VEHTYPE" speed="13.19" pos="68.73" lane="2/1to1/1_0" slope="0.00"/>
        <vehicle id="1" x="198.35" y="735.36" angle="0.00" type="DEFAULT_VEHTYPE" speed="13.59" pos="64.64" lane="1/4to1/3_0" slope="0.00"/>
        <vehicle id="2" x="198.35" y="546.96" angle="0.00" type="DEFAULT_VEHTYPE" speed="12.22" pos="48.29" lane="1/3to1/2_0" slope="0.00"/>
        <vehicle id="3" x="598.35" y="162.43" angle="0.00" type="DEFAULT_VEHTYPE" speed="9.41" pos="32.82" lane="3/1to3/0_0" slope="0.00"/>
        <vehicle id="4" x="401.65" y="627.10" angle="180.00" type="DEFAULT_VEHTYPE" speed="6.71" pos="22.35" lane="2/3to2/4_0" slope="0.00"/>
        <vehicle id="5" x="177.24" y="201.65" angle="-90.00" type="DEFAULT_VEHTYPE" speed="6.38" pos="18.01" lane="1/1to0/1_0" slope="0.00"/>
        <vehicle id="6" x="615.38" y="598.35" angle="90.00" type="DEFAULT_VEHTYPE" speed="3.44" pos="10.63" lane="3/3to4/3_0" slope="0.00"/>
        <vehicle id="7" x="601.65" y="412.41" angle="180.00" type="DEFAULT_VEHTYPE" speed="2.56" pos="7.66" lane="3/2to3/3_0" slope="0.00"/>
        <vehicle id="8" x="198.35" y="390.15" angle="0.00" type="DEFAULT_VEHTYPE" speed="0.00" pos="5.10" lane="1/2to1/1_0" slope="0.00"/>
    </timestep>
    <timestep time="9.00">
        <vehicle id="0" x="313.51" y="201.65" angle="-90.00" type="DEFAULT_VEHTYPE" speed="13.01" pos="81.74" lane="2/1to1/1_0" slope="0.00"/>
        <vehicle id="1" x="198.35" y="721.90" angle="0.00" type="DEFAULT_VEHTYPE" speed="13.47" pos="78.10" lane="1/4to1/3_0" slope="0.00"/>
        <vehicle id="2" x="198.35" y="533.23" angle="0.00" type="DEFAULT_VEHTYPE" speed="13.73" pos="62.02" lane="1/3to1/2_0" slope="0.00"/>
        <vehicle id="3" x="598.35" y="150.58" angle="0.00" type="DEFAULT_VEHTYPE" speed="11.85" pos="44.67" lane="3/1to3/0_0" slope="0.00"/>
        <vehicle id="4" x="401.65" y="635.88" angle="180.00" type="DEFAULT_VEHTYPE" speed="8.77" pos="31.13" lane="2/3to2/4_0" slope="0.00"/>
        <vehicle id="5" x="169.52" y="201.65" angle="-90.00" type="DEFAULT_VEHTYPE" speed="7.73" pos="25.73" lane="1/1to0/1_0" slope="0.00"/>
        <vehicle id="6" x="621.07" y="598.35" angle="90.00" type="DEFAULT_VEHTYPE" speed="5.70" pos="16.32" lane="3/3to4/3_0" slope="0.00"/>
        <vehicle id="7" x="601.65" y="417.28" angle="180.00" type="DEFAULT_VEHTYPE" speed="4.87" pos="12.53" lane="3/2to3/3_0" slope="0.00"/>
        <vehicle id="8" x="198.35" y="387.77" angle="0.00" type="DEFAULT_VEHTYPE" speed="2.38" pos="7.48" lane="1/2to1/1_0" slope="0.00"/>
        <vehicle id="9" x="598.35" y="190.15" angle="0.00" type="DEFAULT_VEHTYPE" speed="0.00" pos="5.10" lane="3/1to3/0_0" slope="0.00"/>
    </timestep>
    <timestep time="10.00">
        <vehicle id="0" x="300.35" y="201.65" angle="-90.00" type="DEFAULT_VEHTYPE" speed="13.16" pos="94.90" lane="2/1to1/1_0" slope="0.00"/>
        <vehicle id="1" x="198.35" y="708.31" angle="0.00" type="DEFAULT_VEHTYPE" speed="13.59" pos="91.69" lane="1/4to1/3_0" slope="0.00"/>
        <vehicle id="10" x="5.10" y="398.35" angle="90.00" type="DEFAULT_VEHTYPE" speed="0.00" pos="5.10" lane="0/2to1/2_0" slope="0.00"/>
        <vehicle id="2" x="198.35" y="520.39" angle="0.00" type="DEFAULT_VEHTYPE" speed="12.84" pos="74.86" lane="1/3to1/2_0" slope="0.00"/>
        <vehicle id="3" x="598.35" y="137.55" angle="0.00" type="DEFAULT_VEHTYPE" speed="13.03" pos="57.70" lane="3/1to3/0_0" slope="0.00"/>
        <vehicle id="4" x="401.65" y="646.32" angle="180.00" type="DEFAULT_VEHTYPE" speed="10.44" pos="41.57" lane="2/3to2/4_0" slope="0.00"/>
        <vehicle id="5" x="159.97" y="201.65" angle="-90.00" type="DEFAULT_VEHTYPE" speed="9.55" pos="35.28" lane="1/1to0/1_0" slope="0.00"/>
        <vehicle id="6" x="628.47" y="598.35" angle="90.00" type="DEFAULT_VEHTYPE" speed="7.40" pos="23.72" lane="3/3to4/3_0" slope="0.00"/>
        <vehicle id="7" x="601.65" y="423.54" angle="180.00" type="DEFAULT_VEHTYPE" speed="6.26" pos="18.79" lane="3/2to3/3_0" slope="0.00"/>
        <vehicle id="8" x="198.35" y="384.03" angle="0.00" type="DEFAULT_VEHTYPE" speed="3.73" pos="11.22" lane="1/2to1/1_0" slope="0.00"/>
        <vehicle id="9" x="598.35" y="187.67" angle="0.00" type="DEFAULT_VEHTYPE" speed="2.48" pos="7.58" lane="3/1to3/0_0" slope="0.00"/>
    </timestep>
    <timestep time="11.00">
        <vehicle id="0" x="286.85" y="201.65" angle="-90.00" type="DEFAULT_VEHTYPE" speed="13.50" pos="108.40" lane="2/1to1/1_0" slope="0.00"/>
        <vehicle id="1" x="198.35" y="695.05" angle="0.00" type="DEFAULT_VEHTYPE" speed="13.26" pos="104.95" lane="1/4to1/3_0" slope="0.00"/>
        <vehicle id="10" x="6.99" y="398.35" angle="90.00" type="DEFAULT_VEHTYPE" speed="1.89" pos="6.99" lane="0/2to1/2_0" slope="0.00"/>
        <vehicle id="11" x="398.35" y="794.90" angle="0.00" type="DEFAULT_VEHTYPE" speed="0.00" pos="5.10" lane="2/4to2/3_0" slope="0.00"/>
        <vehicle id="2" x="198.35" y="507.24" angle="0.00" type="DEFAULT_VEHTYPE" speed="13.15" pos="88.01" lane="1/3to1/2_0" slope="0.00"/>
        <vehicle id="3" x="598.35" y="124.89" angle="0.00" type="DEFAULT_VEHTYPE" speed="12.66" pos="70.36" lane="3/1to3/0_0" slope="0.00"/>
        <vehicle id="4" x="401.65" y="659.13" angle="180.00" type="DEFAULT_VEHTYPE" speed="12.81" pos="54.38" lane="2/3to2/4_0" slope="0.00"/>
        <vehicle id="5" x="148.65" y="201.65" angle="-90.00" type="DEFAULT_VEHTYPE" speed="11.32" pos="46.60" lane="1/1to0/1_0" slope="0.00"/>
        <vehicle id="6" x="638.27" y="598.35" angle="90.00" type="DEFAULT_VEHTYPE" speed="9.80" pos="33.52" lane="3/3to4/3_0" slope="0.00"/>
        <vehicle id="7" x="601.65" y="432.36" angle="180.00" type="DEFAULT_VEHTYPE" speed="8.82" pos="27.61" lane="3/2to3/3_0" slope="0.00"/>
        <vehicle id="8" x="198.35" y="378.06" angle="0.00" type="DEFAULT_VEHTYPE" speed="5.97" pos="17.19" lane="1/2to1/1_0" slope="0.00"/>
        <vehicle id="9" x="598.35" y="182.80" angle="0.00" type="DEFAULT_VEHTYPE" speed="4.87" pos="12.45" lane="3/1to3/0_0" slope="0.00"/>
    </timestep>
    <timestep time="12.00">
        <vehicle id="0" x="274.16" y="201.65" angle="-90.00" type="DEFAULT_VEHTYPE" speed="12.69" pos="121.09" lane="2/1to1/1_0" slope="0.00"/>
        <vehicle id="1" x="198.35" y="681.24" angle="0.00" type="DEFAULT_VEHTYPE" speed="13.81" pos="118.76" lane="1/4to1/3_0" slope="0.00"/>
        <vehicle id="10" x="11.42" y="398.35" angle="90.00" type="DEFAULT_VEHTYPE" speed="4.43" pos="11.42" lane="0/2to1/2_0" slope="0.00"/>
        <vehicle id="11" x="398.35" y="792.40" angle="0.00" type="DEFAULT_VEHTYPE" speed="2.50" pos="7.60" lane="2/4to2/3_0" slope="0.00"/>
        <vehicle id="12" x="398.35" y="190.15" angle="0.00" type="DEFAULT_VEHTYPE" speed="0.00" pos="5.10" lane="2/1to2/0_0" slope="0.00"/>
        <vehicle id="2" x="198.35" y="493.57" angle="0.00" type="DEFAULT_VEHTYPE" speed="13.67" pos="101.68" lane="1/3to1/2_0" slope="0.00"/>
        <vehicle id="3" x="598.35" y="111.40" angle="0.00" type="DEFAULT_VEHTYPE" speed="13.49" pos="83.85" lane="3/1to3/0_0" slope="0.00"/>
        <vehicle id="4" x="401.65" y="672.59" angle="180.00" type="DEFAULT_VEHTYPE" speed="13.46" pos="67.84" lane="2/3to2/4_0" slope="0.00"/>
        <vehicle id="5" x="134.87" y="201.65" angle="-90.00" type="DEFAULT_VEHTYPE" speed="13.79" pos="60.38" lane="1/1to0/1_0" slope="0.00"/>
        <vehicle id="6" x="649.94" y="598.35" angle="90.00" type="DEFAULT_VEHTYPE" speed="11.66" pos="45.19" lane="3/3to4/3_0" slope="0.00"/>
        <vehicle id="7" x="601.65" y="443.51" angle="180.00" type="DEFAULT_VEHTYPE" speed="11.15" pos="38.76" lane="3/2to3/3_0" slope="0.00"/>
        <vehicle id="8" x="198.35" y="369.73" angle="0.00" type="DEFAULT_VEHTYPE" speed="8.34" pos="25.52" lane="1/2to1/1_0" slope="0.00"/>
        <vehicle id="9" x="598.35" y="176.62" angle="0.00" type="DEFAULT_VEHTYPE" speed="6.18" pos="18.63" lane="3/1to3/0_0" slope="0.00"/>
    </timestep>
    <timestep time="13.00">
        <vehicle id="0" x="261.20" y="201.65" angle="-90.00" type="DEFAULT_VEHTYPE" speed="12.96" pos="134.05" lane="2/1to1/1_0" slope="0.00"/>
        <vehicle id="1" x="198.35" y="667.79" angle="0.00" type="DEFAULT_VEHTYPE" speed="13.44" pos="132.21" lane="1/4to1/3_0" slope="0.00"/>
        <vehicle id="10" x="17.69" y="398.35" angle="90.00" type="DEFAULT_VEHTYPE" speed="6.27" pos="17.69" lane="0/2to1/2_0" slope="0.00"/>
        <vehicle id="11" x="398.35" y="787.85" angle="0.00" type="DEFAULT_VEHTYPE" speed="4.55" pos="12.15" lane="2/4to2/3_0" slope="0.00"/>
        <vehicle id="12" x="398.35" y="188.02" angle="0.00" type="DEFAULT_VEHTYPE" speed="2.13" pos="7.23" lane="2/1to2/0_0" slope="0.00"/>
        <vehicle id="13" x="5.10" y="598.35" angle="90.00" type="DEFAULT_VEHTYPE" speed="0.00" pos="5.10" lane="0/3to1/3_0" slope="0.00"/>
        <vehicle id="2" x="198.35" y="480.05" angle="0.00" type="DEFAULT_VEHTYPE" speed="13.52" pos="115.20" lane="1/3to1/2_0" slope="0.00"/>
        <vehicle id="3" x="598.35" y="98.38" angle="0.00" type="DEFAULT_VEHTYPE" speed="13.02" pos="96.87" lane="3/1to3/0_0" slope="0.00"/>
        <vehicle id="4" x="401.65" y="685.94" angle="180.00" type="DEFAULT_VEHTYPE" speed="13.35" pos="81.19" lane="2/3to2/4_0" slope="0.00"/>
        <vehicle id="5" x="121.76" y="201.65" angle="-90.00" type="DEFAULT_VEHTYPE" speed="13.10" pos="73.49" lane="1/1to0/1_0" slope="0.00"/>
        <vehicle id="6" x="663.33" y="598.35" angle="90.00" type="DEFAULT_VEHTYPE" speed="13.39" pos="58.58" lane="3/3to4/3_0" slope="0.00"/>
        <vehicle id="7" x="601.65" y="456.59" angle="180.00" type="DEFAULT_VEHTYPE" speed="13.08" pos="51.84" lane="3/2to3/3_0" slope="0.00"/>
        <vehicle id="8" x="198.35" y="359.86" angle="0.00" type="DEFAULT_VEHTYPE" speed="9.86" pos="35.39" lane="1/2to1/1_0" slope="0.00"/>
        <vehicle id="9" x="598.35" y="168.13" angle="0.00" type="DEFAULT_VEHTYPE" speed="8.50" pos="27.12" lane="3/1to3/0_0" slope="0.00"/>
    </timestep>
    <timestep time="14.00">
        <vehicle id="0" x="248.57" y="201.65" angle="-90.00" type="DEFAULT_VEHTYPE" speed="12.63" pos="146.68" lane="2/1to1/1_0" slope="0.00"/>
        <vehicle id="1" x="198.35" y="653.93" angle="0.00" type="DEFAULT_VEHTYPE" speed="13.87" pos="146.07" lane="1/4to1/3_0" slope="0.00"/>
        <vehicle id="10" x="25.96" y="398.35" angle="90.00" type="DEFAULT_VEHTYPE" speed="8.28" pos="25.96" lane="0/2to1/2_0" slope="0.00"/>
        <vehicle id="11" x="398.35" y="781.83" angle="0.00" type="DEFAULT_VEHTYPE" speed="6.02" pos="18.17" lane="2/4to2/3_0" slope="0.00"/>
        <vehicle id="12" x="398.35" y="184.05" angle="0.00" type="DEFAULT_VEHTYPE" speed="3.98" pos="11.20" lane="2/1to2/0_0" slope="0.00"/>
        <vehicle id="13" x="6.44" y="598.35" angle="90.00" type="DEFAULT_VEHTYPE" speed="1.34" pos="6.44" lane="0/3to1/3_0" slope="0.00"/>
        <vehicle id="14" x="198.35" y="390.15" angle="0.00" type="DEFAULT_VEHTYPE" speed="0.00" pos="5.10" lane="1/2to1/1_0" slope="0.00"/>
        <vehicle id="2" x="198.35" y="466.54" angle="0.00" type="DEFAULT_VEHTYPE" speed="13.51" pos="128.71" lane="1/3to1/2_0" slope="0.00"/>
        <vehicle id="3" x="598.35" y="85.62" angle="0.00" type="DEFAULT_VEHTYPE" speed="12.76" pos="109.63" lane="3/1to3/0_0" slope="0.00"/>
        <vehicle id="4" x="401.65" y="699.02" angle="180.00" type="DEFAULT_VEHTYPE" speed="13.09" pos="94.27" lane="2/3to2/4_0" slope="0.00"/>
        <vehicle id="5" x="109.07" y="201.65" angle="-90.00" type="DEFAULT_VEHTYPE" speed="12.70" pos="86.18" lane="1/1to0/1_0" slope="0.00"/>
        <vehicle id="6" x="676.59" y="598.35" angle="90.00" type="DEFAULT_VEHTYPE" speed="13.26" pos="71.84" lane="3/3to4/3_0" slope="0.00"/>
        <vehicle id="7" x="601.65" y="469.94" angle="180.00" type="DEFAULT_VEHTYPE" speed="13.35" pos="65.19" lane="3/2to3/3_0" slope="0.00"/>
        <vehicle id="8" x="198.35" y="348.32" angle="0.00" type="DEFAULT_VEHTYPE" speed="11.54" pos="46.93" lane="1/2to1/1_0" slope="0.00"/>
        <vehicle id="9" x="598.35" y="157.16" angle="0.00" type="DEFAULT_VEHTYPE" speed="10.96" pos="38.09" lane="3/1to3/0_0" slope="0.00"/>
    </timestep>
    <timestep time="15.00">
        <vehicle id="0" x="235.05" y="201.65" angle="-90.00" type="DEFAULT_VEHTYPE" speed="13.51" pos="160.20" lane="2/1to1/1_0" slope="0.00"/>
        <vehicle id="1" x="198.35" y="640.56" angle="0.00" type="DEFAULT_VEHTYPE" speed="13.37" pos="159.44" lane="1/4to1/3_0" slope="0.00"/>
        <vehicle id="10" x="35.91" y="398.35" angle="90.00" type="DEFAULT_VEHTYPE" speed="9.95" pos="35.91" lane="0/2to1/2_0" slope="0.00"/>
        <vehicle id="11" x="398.35" y="773.40" angle="0.00" type="DEFAULT_VEHTYPE" speed="8.43" pos="26.60" lane="2/4to2/3_0" slope="0.00"/>
        <vehicle id="12" x="398.35" y="178.61" angle="0.00" type="DEFAULT_VEHTYPE" speed="5.43" pos="16.64" lane="2/1to2/0_0" slope="0.00"/>
        <vehicle id="13" x="9.89" y="598.35" angle="90.00" type="DEFAULT_VEHTYPE" speed="3.45" pos="9.89" lane="0/3to1/3_0" slope="0.00"/>
        <vehicle id="14" x="198.35" y="388.48" angle="0.00" type="DEFAULT_VEHTYPE" speed="1.67" pos="6.77" lane="1/2to1/1_0" slope="0.00"/>
        <vehicle id="15" x="609.85" y="198.35" angle="90.00" type="DEFAULT_VEHTYPE" speed="0.00" pos="5.10" lane="3/1to4/1_0" slope="0.00"/>
        <vehicle id="2" x="198.35" y="453.09" angle="0.00" type="DEFAULT_VEHTYPE" speed="13.45" pos="142.16" lane="1/3to1/2_0" slope="0.00"/>
        <vehicle id="3" x="598.35" y="71.86" angle="0.00" type="DEFAULT_VEHTYPE" speed="13.77" pos="123.39" lane="3/1to3/0_0" slope="0.00"/>
        <vehicle id="4" x="401.65" y="712.32" angle="180.00" type="DEFAULT_VEHTYPE" speed="13.29" pos="107.57" lane="2/3to2/4_0" slope="0.00"/>
        <vehicle id="5" x="96.03" y="201.65" angle="-90.00" type="DEFAULT_VEHTYPE" speed="13.04" pos="99.22" lane="1/1to0/1_0" slope="0.00"/>
        <vehicle id="6" x="689.47" y="598.35" angle="90.00" type="DEFAULT_VEHTYPE" speed="12.88" pos="84.72" lane="3/3to4/3_0" slope="0.00"/>
        <vehicle id="7" x="601.65" y="483.47" angle="180.00" type="DEFAULT_VEHTYPE" speed="13.53" pos="78.72" lane="3/2to3/3_0" slope="0.00"/>
        <vehicle id="8" x="198.35" y="334.59" angle="0.00" type="DEFAULT_VEHTYPE" speed="13.74" pos="60.66" lane="1/2to1/1_0" slope="0.00"/>
        <vehicle id="9" x="598.35" y="144.51" angle="0.00" type="DEFAULT_VEHTYPE" speed="12.65" pos="50.74" lane="3/1to3/0_0" slope="0.00"/>
    </timestep>
    <timestep time="16.00">
        <vehicle id="0" x="223.73" y="201.65" angle="-90.00" type="DEFAULT_VEHTYPE" speed="11.32" pos="171.52" lane="2/1to1/1_0" slope="0.00"/>
        <vehicle id="1" x="198.35" y="626.71" angle="0.00" type="DEFAULT_VEHTYPE" speed="13.84" pos="173.29" lane="1/4to1/3_0" slope="0.00"/>
        <vehicle id="10" x="47.69" y="398.35" angle="90.00" type="DEFAULT_VEHTYPE" speed="11.78" pos="47.69" lane="0/2to1/2_0" slope="0.00"/>
        <vehicle id="11" x="398.35" y="762.72" angle="0.00" type="DEFAULT_VEHTYPE" speed="10.67" pos="37.28" lane="2/4to2/3_0" slope="0.00"/>
        <vehicle id="12" x="398.35" y="171.07" angle="0.00" type="DEFAULT_VEHTYPE" speed="7.54" pos="24.18" lane="2/1to2/0_0" slope="0.00"/>
        <vehicle id="13" x="15.06" y="598.35" angle="90.00" type="DEFAULT_VEHTYPE" speed="5.17" pos="15.06" lane="0/3to1/3_0" slope="0.00"/>
        <vehicle id="14" x="198.35" y="385.06" angle="0.00" type="DEFAULT_VEHTYPE" speed="3.41" pos="10.19" lane="1/2to1/1_0" slope="0.00"/>
        <vehicle id="15" x="611.68" y="198.35" angle="90.00" type="DEFAULT_VEHTYPE" speed="1.83" pos="6.93" lane="3/1to4/1_0" slope="0.00"/>
        <vehicle id="16" x="794.90" y="201.65" angle="-90.00" type="DEFAULT_VEHTYPE" speed="0.00" pos="5.10" lane="4/1to3/1_0" slope="0.00"/>
        <vehicle id="2" x="198.35" y="439.70" angle="0.00" type="DEFAULT_VEHTYPE" speed="13.39" pos="155.55" lane="1/3to1/2_0" slope="0.00"/>
        <vehicle id="3" x="598.35" y="59.23" angle="0.00" type="DEFAULT_VEHTYPE" speed="12.63" pos="136.02" lane="3/1to3/0_0" slope="0.00"/>
        <vehicle id="4" x="401.65" y="725.12" angle="180.00" type="DEFAULT_VEHTYPE" speed="12.80" pos="120.37" lane="2/3to2/4_0" slope="0.00"/>
        <vehicle id="5" x="82.33" y="201.65" angle="-90.00" type="DEFAULT_VEHTYPE" speed="13.70" pos="112.92" lane="1/1to0/1_0" slope="0.00"/>
        <vehicle id="6" x="702.20" y="598.35" angle="90.00" type="DEFAULT_VEHTYPE" speed="12.72" pos="97.45" lane="3/3to4/3_0" slope="0.00"/>
        <vehicle id="7" x="601.65" y="496.92" angle="180.00" type="DEFAULT_VEHTYPE" speed="13.45" pos="92.17" lane="3/2to3/3_0" slope="0.00"/>
        <vehicle id="8" x="198.35" y="321.25" angle="0.00" type="DEFAULT_VEHTYPE" speed="13.34" pos="74.00" lane="1/2to1/1_0" slope="0.00"/>
        <vehicle id="9" x="598.35" y="131.49" angle="0.00" type="DEFAULT_VEHTYPE" speed="13.02" pos="63.76" lane="3/1to3/0_0" slope="0.00"/>
    </timestep>
    <timestep time="17.00">
        <vehicle id="0" x="215.99" y="201.65" angle="-90.00" type="DEFAULT_VEHTYPE" speed="7.74" pos="179.26" lane="2/1to1/1_0" slope="0.00"/>
        <vehicle id="1" x="198.35" y="612.95" angle="0.00" type="DEFAULT_VEHTYPE" speed="13.77" pos="187.05" lane="1/4to1/3_0" slope="0.00"/>
        <vehicle id="10" x="60.42" y="398.35" angle="90.00" type="DEFAULT_VEHTYPE" speed="12.73" pos="60.42" lane="0/2to1/2_0" slope="0.00"/>
        <vehicle id="11" x="398.35" y="749.67" angle="0.00" type="DEFAULT_VEHTYPE" speed="13.06" pos="50.33" lane="2/4to2/3_0" slope="0.00"/>
        <vehicle id="12" x="398.35" y="161.38" angle="0.00" type="DEFAULT_VEHTYPE" speed="9.69" pos="33.87" lane="2/1to2/0_0" slope="0.00"/>
        <vehicle id="13" x="21.79" y="598.35" angle="90.00" type="DEFAULT_VEHTYPE" speed="6.73" pos="21.79" lane="0/3to1/3_0" slope="0.00"/>
        <vehicle id="14" x="198.35" y="380.21" angle="0.00" type="DEFAULT_VEHTYPE" speed="4.86" pos="15.04" lane="1/2to1/1_0" slope="0.00"/>
        <vehicle id="15" x="615.50" y="198.35" angle="90.00" type="DEFAULT_VEHTYPE" speed="3.82" pos="10.75" lane="3/1to4/1_0" slope="0.00"/>
        <vehicle id="16" x="792.74" y="201.65" angle="-90.00" type="DEFAULT_VEHTYPE" speed="2.16" pos="7.26" lane="4/1to3/1_0" slope="0.00"/>
        <vehicle id="17" x="398.35" y="390.15" angle="0.00" type="DEFAULT_VEHTYPE" speed="0.00" pos="5.10" lane="2/2to2/1_0" slope="0.00"/>
        <vehicle id="2" x="198.35" y="427.64" angle="0.00" type="DEFAULT_VEHTYPE" speed="12.06" pos="167.61" lane="1/3to1/2_0" slope="0.00"/>
        <vehicle id="3" x="598.35" y="46.39" angle="0.00" type="DEFAULT_VEHTYPE" speed="12.83" pos="148.86" lane="3/1to3/0_0" slope="0.00"/>
        <vehicle id="4" x="401.65" y="737.79" angle="180.00" type="DEFAULT_VEHTYPE" speed="12.67" pos="133.04" lane="2/3to2/4_0" slope="0.00"/>
        <vehicle id="5" x="69.14" y="201.65" angle="-90.00" type="DEFAULT_VEHTYPE" speed="13.19" pos="126.11" lane="1/1to0/1_0" slope="0.00"/>
        <vehicle id="6" x="716.08" y="598.35" angle="90.00" type="DEFAULT_VEHTYPE" speed="13.88" pos="111.33" lane="3/3to4/3_0" slope="0.00"/>
        <vehicle id="7" x="601.65" y="509.55" angle="180.00" type="DEFAULT_VEHTYPE" speed="12.62" pos="104.80" lane="3/2to3/3_0" slope="0.00"/>
        <vehicle id="8" x="198.35" y="307.97" angle="0.00" type="DEFAULT_VEHTYPE" speed="13.27" pos="87.28" lane="1/2to1/1_0" slope="0.00"/>
        <vehicle id="9" x="598.35" y="118.42" angle="0.00" type="DEFAULT_VEHTYPE" speed="13.07" pos="76.83" lane="3/1to3/0_0" slope="0.00"/>
    </timestep>
    <timestep time="18.00">
        <vehicle id="0" x="210.55" y="201.65" angle="-90.00" type="DEFAULT_VEHTYPE" speed="5.45" pos="184.70" lane="2/1to1/1_0" slope="0.00"/>
        <vehicle id="1" x="198.35" y="599.90" angle="0.00" type="DEFAULT_VEHTYPE" speed="13.04" pos="4.85" lane=":1/3_1_0" slope="0.00"/>
        <vehicle id="10" x="73.02" y="398.35" angle="90.00" type="DEFAULT_VEHTYPE" speed="12.60" pos="73.02" lane="0/2to1/2_0" slope="0.00"/>
        <vehicle id="11" x="398.35" y="736.40" angle="0.00" type="DEFAULT_VEHTYPE" speed="13.27" pos="63.60" lane="2/4to2/3_0" slope="0.00"/>
        <vehicle id="12" x="398.35" y="150.31" angle="0.00" type="DEFAULT_VEHTYPE" speed="11.07" pos="44.94" lane="2/1to2/0_0" slope="0.00"/>
        <vehicle id="13" x="30.10" y="598.35" angle="90.00" type="DEFAULT_VEHTYPE" speed="8.31" pos="30.10" lane="0/3to1/3_0" slope="0.00"/>
        <vehicle id="14" x="198.35" y="373.81" angle="0.00" type="DEFAULT_VEHTYPE" speed="6.39" pos="21.44" lane="1/2to1/1_0" slope="0.00"/>
        <vehicle id="15" x="621.31" y="198.35" angle="90.00" type="DEFAULT_VEHTYPE" speed="5.82" pos="16.56" lane="3/1to4/1_0" slope="0.00"/>
        <vehicle id="16" x="789.08" y="201.65" angle="-90.00" type="DEFAULT_VEHTYPE" speed="3.66" pos="10.92" lane="4/1to3/1_0" slope="0.00"/>
        <vehicle id="17" x="398.35" y="387.98" angle="0.00" type="DEFAULT_VEHTYPE" speed="2.17" pos="7.27" lane="2/2to2/1_0" slope="0.00"/>
        <vehicle id="2" x="198.35" y="419.06" angle="0.00" type="DEFAULT_VEHTYPE" speed="8.58" pos="176.19" lane="1/3to1/2_0" slope="0.00"/>
        <vehicle id="3" x="598.35" y="33.13" angle="0.00" type="DEFAULT_VEHTYPE" speed="13.27" pos="162.12" lane="3/1to3/0_0" slope="0.00"/>
        <vehicle id="4" x="401.65" y="750.51" angle="180.00" type="DEFAULT_VEHTYPE" speed="12.72" pos="145.76" lane="2/3to2/4_0" slope="0.00"/>
        <vehicle id="5" x="55.78" y="201.65" angle="-90.00" type="DEFAULT_VEHTYPE" speed="13.36" pos="139.47" lane="1/1to0/1_0" slope="0.00"/>
        <vehicle id="6" x="729.83" y="598.35" angle="90.00" type="DEFAULT_VEHTYPE" speed="13.75" pos="125.08" lane="3/3to4/3_0" slope="0.00"/>
        <vehicle id="7" x="601.65" y="522.34" angle="180.00" type="DEFAULT_VEHTYPE" speed="12.79" pos="117.59" lane="3/2to3/3_0" slope="0.00"/>
        <vehicle id="8" x="198.35" y="294.59" angle="0.00" type="DEFAULT_VEHTYPE" speed="13.39" pos="100.66" lane="1/2to1/1_0" slope="0.00"/>
        <vehicle id="9" x="598.35" y="104.54" angle="0.00" type="DEFAULT_VEHTYPE" speed="13.88" pos="90.71" lane="3/1to3/0_0" slope="0.00"/>
    </timestep>
    <timestep time="19.00">
        <vehicle id="0" x="202.87" y="202.16" angle="-95.88" type="DEFAULT_VEHTYPE" speed="7.78" pos="1.98" lane=":1/1_4_0" slope="0.00"/>
        <vehicle id="1" x="198.35" y="587.20" angle="0.00" type="DEFAULT_VEHTYPE" speed="12.70" pos="8.05" lane="1/3to1/2_0" slope="0.00"/>
        <vehicle id="10" x="86.75" y="398.35" angle="90.00" type="DEFAULT_VEHTYPE" speed="13.73" pos="86.75" lane="0/2to1/2_0" slope="0.00"/>
        <vehicle id="11" x="398.35" y="723.53" angle="0.00" type="DEFAULT_VEHTYPE" speed="12.87" pos="76.47" lane="2/4to2/3_0" slope="0.00"/>
        <vehicle id="12" x="398.35" y="136.79" angle="0.00" type="DEFAULT_VEHTYPE" speed="13.52" pos="58.46" lane="2/1to2/0_0" slope="0.00"/>
        <vehicle id="13" x="40.89" y="598.35" angle="90.00" type="DEFAULT_VEHTYPE" speed="10.79" pos="40.89" lane="0/3to1/3_0" slope="0.00"/>
        <vehicle id="14" x="198.35" y="365.02" angle="0.00" type="DEFAULT_VEHTYPE" speed="8.79" pos="30.23" lane="1/2to1/1_0" slope="0.00"/>
        <vehicle id="15" x="629.44" y="198.35" angle="90.00" type="DEFAULT_VEHTYPE" speed="8.12" pos="24.69" lane="3/1to4/1_0" slope="0.00"/>
        <vehicle id="16" x="783.11" y="201.65" angle="-90.00" type="DEFAULT_VEHTYPE" speed="5.97" pos="16.89" lane="4/1to3/1_0" slope="0.00"/>
        <vehicle id="17" x="398.35" y="383.47" angle="0.00" type="DEFAULT_VEHTYPE" speed="4.51" pos="11.78" lane="2/2to2/1_0" slope="0.00"/>
        <vehicle id="19" x="590.15" y="601.65" angle="-90.00" type="DEFAULT_VEHTYPE" speed="0.00" pos="5.10" lane="3/3to2/3_0" slope="0.00"/>