<?xml version="1.0" encoding="UTF-8"?>

<!-- generated on Thu Oct 31 13:26:35 2013 by SUMO sumo Version 0.18.0
<?xml version="1.0" encoding="UTF-8"?>

<configuration xmlns:xsi="http://www.w3.org/2001/XMLSchema-instance" xsi:noNamespaceSchemaLocation="http://sumo.sf.net/xsd/sumoConfiguration.xsd">

    <input>
        <net-file value="test.net.xml"/>
        <route-files value="test.rou.xml"/>
        <additional-files value="test.rerouter.xml"/>
    </input>

    <output>
        <fcd-output value="test-25.fcd.xml"/>
        <save-state.prefix value="state"/>
    </output>

    <time>
        <begin value="0"/>
        <end value="800"/>
    </time>

    <gui_only>
        <gui-settings-file value="test.settings.xml"/>
    </gui_only>

</configuration>
-->

<fcd-export>
    <timestep time="0.00">
        <vehicle id="0" x="794.90" y="601.65" angle="-90.00" type="DEFAULT_VEHTYPE" speed="0.00" pos="5.10" lane="4/3to3/3_0" slope="0.00"/>
    </timestep>
    <timestep time="1.00">
        <vehicle id="0" x="793.46" y="601.65" angle="-90.00" type="DEFAULT_VEHTYPE" speed="1.44" pos="6.54" lane="4/3to3/3_0" slope="0.00"/>
        <vehicle id="1" x="390.15" y="601.65" angle="-90.00" type="DEFAULT_VEHTYPE" speed="0.00" pos="5.10" lane="2/3to1/3_0" slope="0.00"/>
    </timestep>
    <timestep time="2.00">
        <vehicle id="0" x="790.34" y="601.65" angle="-90.00" type="DEFAULT_VEHTYPE" speed="3.12" pos="9.66" lane="4/3to3/3_0" slope="0.00"/>
        <vehicle id="1" x="387.61" y="601.65" angle="-90.00" type="DEFAULT_VEHTYPE" speed="2.54" pos="7.64" lane="2/3to1/3_0" slope="0.00"/>
        <vehicle id="2" x="190.15" y="201.65" angle="-90.00" type="DEFAULT_VEHTYPE" speed="0.00" pos="5.10" lane="1/1to0/1_0" slope="0.00"/>
    </timestep>
    <timestep time="3.00">
        <vehicle id="0" x="785.27" y="601.65" angle="-90.00" type="DEFAULT_VEHTYPE" speed="5.08" pos="14.73" lane="4/3to3/3_0" slope="0.00"/>
        <vehicle id="1" x="383.24" y="601.65" angle="-90.00" type="DEFAULT_VEHTYPE" speed="4.37" pos="12.01" lane="2/3to1/3_0" slope="0.00"/>
        <vehicle id="2" x="187.61" y="201.65" angle="-90.00" type="DEFAULT_VEHTYPE" speed="2.54" pos="7.64" lane="1/1to0/1_0" slope="0.00"/>
        <vehicle id="3" x="398.35" y="390.15" angle="0.00" type="DEFAULT_VEHTYPE" speed="0.00" pos="5.10" lane="2/2to2/1_0" slope="0.00"/>
    </timestep>
    <timestep time="4.00">
        <vehicle id="0" x="778.56" y="601.65" angle="-90.00" type="DEFAULT_VEHTYPE" speed="6.71" pos="21.44" lane="4/3to3/3_0" slope="0.00"/>
        <vehicle id="1" x="376.58" y="601.65" angle="-90.00" type="DEFAULT_VEHTYPE" speed="6.65" pos="18.67" lane="2/3to1/3_0" slope="0.00"/>
        <vehicle id="2" x="183.17" y="201.65" angle="-90.00" type="DEFAULT_VEHTYPE" speed="4.43" pos="12.08" lane="1/1to0/1_0" slope="0.00"/>
        <vehicle id="3" x="398.35" y="388.52" angle="0.00" type="DEFAULT_VEHTYPE" speed="1.63" pos="6.73" lane="2/2to2/1_0" slope="0.00"/>
        <vehicle id="4" x="390.15" y="601.65" angle="-90.00" type="DEFAULT_VEHTYPE" speed="0.00" pos="5.10" lane="2/3to1/3_0" slope="0.00"/>
    </timestep>
    <timestep time="5.00">
        <vehicle id="0" x="769.25" y="601.65" angle="-90.00" type="DEFAULT_VEHTYPE" speed="9.30" pos="30.75" lane="4/3to3/3_0" slope="0.00"/>
        <vehicle id="1" x="367.94" y="601.65" angle="-90.00" type="DEFAULT_VEHTYPE" speed="8.65" pos="27.31" lane="2/3to1/3_0" slope="0.00"/>
        <vehicle id="2" x="176.73" y="201.65" angle="-90.00" type="DEFAULT_VEHTYPE" speed="6.45" pos="18.52" lane="1/1to0/1_0" slope="0.00"/>
        <vehicle id="3" x="398.35" y="385.02" angle="0.00" type="DEFAULT_VEHTYPE" speed="3.50" pos="10.23" lane="2/2to2/1_0" slope="0.00"/>
        <vehicle id="4" x="388.42" y="601.65" angle="-90.00" type="DEFAULT_VEHTYPE" speed="1.73" pos="6.83" lane="2/3to1/3_0" slope="0.00"/>
        <vehicle id="5" x="401.65" y="609.85" angle="180.00" type="DEFAULT_VEHTYPE" speed="0.00" pos="5.10" lane="2/3to2/4_0" slope="0.00"/>
    </timestep>
    <timestep time="6.00">
        <vehicle id="0" x="757.69" y="601.65" angle="-90.00" type="DEFAULT_VEHTYPE" speed="11.56" pos="42.31" lane="4/3to3/3_0" slope="0.00"/>
        <vehicle id="1" x="357.83" y="601.65" angle="-90.00" type="DEFAULT_VEHTYPE" speed="10.11" pos="37.42" lane="2/3to1/3_0" slope="0.00"/>
        <vehicle id="2" x="168.10" y="201.65" angle="-90.00" type="DEFAULT_VEHTYPE" speed="8.63" pos="27.15" lane="1/1to0/1_0" slope="0.00"/>
        <vehicle id="3" x="398.35" y="379.82" angle="0.00" type="DEFAULT_VEHTYPE" speed="5.21" pos="15.43" lane="2/2to2/1_0" slope="0.00"/>
        <vehicle id="4" x="384.18" y="601.65" angle="-90.00" type="DEFAULT_VEHTYPE" speed="4.25" pos="11.07" lane="2/3to1/3_0" slope="0.00"/>
        <vehicle id="5" x="401.65" y="612.39" angle="180.00" type="DEFAULT_VEHTYPE" speed="2.54" pos="7.64" lane="2/3to2/4_0" slope="0.00"/>
        <vehicle id="6" x="209.85" y="398.35" angle="90.00" type="DEFAULT_VEHTYPE" speed="0.00" pos="5.10" lane="1/2to2/2_0" slope="0.00"/>
    </timestep>
    <timestep time="7.00">
        <vehicle id="0" x="744.46" y="601.65" angle="-90.00" type="DEFAULT_VEHTYPE" speed="13.23" pos="55.54" lane="4/3to3/3_0" slope="0.00"/>
        <vehicle id="1" x="345.94" y="601.65" angle="-90.00" type="DEFAULT_VEHTYPE" speed="11.88" pos="49.31" lane="2/3to1/3_0" slope="0.00"/>
        <vehicle id="2" x="158.09" y="201.65" angle="-90.00" type="DEFAULT_VEHTYPE" speed="10.01" pos="37.16" lane="1/1to0/1_0" slope="0.00"/>
        <vehicle id="3" x="398.35" y="373.08" angle="0.00" type="DEFAULT_VEHTYPE" speed="6.73" pos="22.17" lane="2/2to2/1_0" slope="0.00"/>
        <vehicle id="4" x="377.73" y="601.65" angle="-90.00" type="DEFAULT_VEHTYPE" speed="6.45" pos="17.52" lane="2/3to1/3_0" slope="0.00"/>
        <vehicle id="5" x="401.65" y="616.38" angle="180.00" type="DEFAULT_VEHTYPE" speed="3.99" pos="11.63" lane="2/3to2/4_0" slope="0.00"/>
        <vehicle id="6" x="211.93" y="398.35" angle="90.00" type="DEFAULT_VEHTYPE" speed="2.08" pos="7.18" lane="1/2to2/2_0" slope="0.00"/>
        <vehicle id="7" x="401.65" y="5.10" angle="180.00" type="DEFAULT_VEHTYPE" speed="0.00" pos="5.10" lane="2/0to2/1_0" slope="0.00"/>
    </timestep>
    <timestep time="8.00">
        <vehicle id="0" x="731.27" y="601.65" angle="-90.00" type="DEFAULT_VEHTYPE" speed="13.19" pos="68.73" lane="4/3to3/3_0" slope="0.00"/>
        <vehicle id="1" x="332.09" y="601.65" angle="-90.00" type="DEFAULT_VEHTYPE" speed="13.86" pos="63.16" lane="2/3to1/3_0" slope="0.00"/>
        <vehicle id="2" x="145.87" y="201.65" angle="-90.00" type="DEFAULT_VEHTYPE" speed="12.22" pos="49.38" lane="1/1to0/1_0" slope="0.00"/>
        <vehicle id="3" x="398.35" y="364.74" angle="0.00" type="DEFAULT_VEHTYPE" speed="8.34" pos="30.51" lane="2/2to2/1_0" slope="0.00"/>
        <vehicle id="4" x="368.99" y="601.65" angle="-90.00" type="DEFAULT_VEHTYPE" speed="8.74" pos="26.26" lane="2/3to1/3_0" slope="0.00"/>
        <vehicle id="5" x="401.65" y="622.76" angle="180.00" type="DEFAULT_VEHTYPE" speed="6.38" pos="18.01" lane="2/3to2/4_0" slope="0.00"/>
        <vehicle id="6" x="215.38" y="398.35" angle="90.00" type="DEFAULT_VEHTYPE" speed="3.44" pos="10.63" lane="1/2to2/2_0" slope="0.00"/>
        <vehicle id="7" x="401.65" y="7.66" angle="180.00" type="DEFAULT_VEHTYPE" speed="2.56" pos="7.66" lane="2/0to2/1_0" slope="0.00"/>
        <vehicle id="8" x="398.35" y="190.15" angle="0.00" type="DEFAULT_VEHTYPE" speed="0.00" pos="5.10" lane="2/1to2/0_0" slope="0.00"/>
    </timestep>
    <timestep time="9.00">
        <vehicle id="0" x="718.26" y="601.65" angle="-90.00" type="DEFAULT_VEHTYPE" speed="13.01" pos="81.74" lane="4/3to3/3_0" slope="0.00"/>
        <vehicle id="1" x="318.35" y="601.65" angle="-90.00" type="DEFAULT_VEHTYPE" speed="13.73" pos="76.90" lane="2/3to1/3_0" slope="0.00"/>
        <vehicle id="2" x="132.14" y="201.65" angle="-90.00" type="DEFAULT_VEHTYPE" speed="13.74" pos="63.11" lane="1/1to0/1_0" slope="0.00"/>
        <vehicle id="3" x="398.35" y="354.33" angle="0.00" type="DEFAULT_VEHTYPE" speed="10.41" pos="40.92" lane="2/2to2/1_0" slope="0.00"/>
        <vehicle id="4" x="358.08" y="601.65" angle="-90.00" type="DEFAULT_VEHTYPE" speed="10.91" pos="37.17" lane="2/3to1/3_0" slope="0.00"/>
        <vehicle id="5" x="401.65" y="630.48" angle="180.00" type="DEFAULT_VEHTYPE" speed="7.73" pos="25.73" lane="2/3to2/4_0" slope="0.00"/>
        <vehicle id="6" x="221.07" y="398.35" angle="90.00" type="DEFAULT_VEHTYPE" speed="5.70" pos="16.32" lane="1/2to2/2_0" slope="0.00"/>
        <vehicle id="7" x="401.65" y="12.53" angle="180.00" type="DEFAULT_VEHTYPE" speed="4.87" pos="12.53" lane="2/0to2/1_0" slope="0.00"/>
        <vehicle id="8" x="398.35" y="187.77" angle="0.00" type="DEFAULT_VEHTYPE" speed="2.38" pos="7.48" lane="2/1to2/0_0" slope="0.00"/>
        <vehicle id="9" x="201.65" y="409.85" angle="180.00" type="DEFAULT_VEHTYPE" speed="0.00" pos="5.10" lane="1/2to1/3_0" slope="0.00"/>
    </timestep>
    <timestep time="10.00">
        <vehicle id="0" x="705.42" y="601.65" angle="-90.00" type="DEFAULT_VEHTYPE" speed="12.84" pos="94.58" lane="4/3to3/3_0" slope="0.00"/>
        <vehicle id="1" x="305.32" y="601.65" angle="-90.00" type="DEFAULT_VEHTYPE" speed="13.03" pos="89.93" lane="2/3to1/3_0" slope="0.00"/>
        <vehicle id="2" x="119.17" y="201.65" angle="-90.00" type="DEFAULT_VEHTYPE" speed="12.97" pos="76.08" lane="1/1to0/1_0" slope="0.00"/>
        <vehicle id="3" x="398.35" y="342.10" angle="0.00" type="DEFAULT_VEHTYPE" speed="12.23" pos="53.15" lane="2/2to2/1_0" slope="0.00"/>
        <vehicle id="4" x="344.69" y="601.65" angle="-90.00" type="DEFAULT_VEHTYPE" speed="13.39" pos="50.56" lane="2/3to1/3_0" slope="0.00"/>
        <vehicle id="5" x="401.65" y="639.91" angle="180.00" type="DEFAULT_VEHTYPE" speed="9.43" pos="35.16" lane="2/3to2/4_0" slope="0.00"/>
        <vehicle id="6" x="228.15" y="398.35" angle="90.00" type="DEFAULT_VEHTYPE" speed="7.08" pos="23.40" lane="1/2to2/2_0" slope="0.00"/>
        <vehicle id="7" x="401.65" y="18.76" angle="180.00" type="DEFAULT_VEHTYPE" speed="6.22" pos="18.76" lane="2/0to2/1_0" slope="0.00"/>
        <vehicle id="8" x="398.35" y="183.19" angle="0.00" type="DEFAULT_VEHTYPE" speed="4.58" pos="12.06" lane="2/1to2/0_0" slope="0.00"/>
        <vehicle id="9" x="201.65" y="411.81" angle="180.00" type="DEFAULT_VEHTYPE" speed="1.96" pos="7.06" lane="1/2to1/3_0" slope="0.00"/>
    </timestep>
    <timestep time="11.00">
        <vehicle id="0" x="692.27" y="601.65" angle="-90.00" type="DEFAULT_VEHTYPE" speed="13.15" pos="107.73" lane="4/3to3/3_0" slope="0.00"/>
        <vehicle id="1" x="292.66" y="601.65" angle="-90.00" type="DEFAULT_VEHTYPE" speed="12.66" pos="102.59" lane="2/3to1/3_0" slope="0.00"/>
        <vehicle id="10" x="398.35" y="190.15" angle="0.00" type="DEFAULT_VEHTYPE" speed="0.00" pos="5.10" lane="2/1to2/0_0" slope="0.00"/>
        <vehicle id="11" x="598.35" y="794.90" angle="0.00" type="DEFAULT_VEHTYPE" speed="0.00" pos="5.10" lane="3/4to3/3_0" slope="0.00"/>
        <vehicle id="2" x="105.51" y="201.65" angle="-90.00" type="DEFAULT_VEHTYPE" speed="13.66" pos="89.74" lane="1/1to0/1_0" slope="0.00"/>
        <vehicle id="3" x="398.35" y="329.04" angle="0.00" type="DEFAULT_VEHTYPE" speed="13.07" pos="66.21" lane="2/2to2/1_0" slope="0.00"/>
        <vehicle id="4" x="331.01" y="601.65" angle="-90.00" type="DEFAULT_VEHTYPE" speed="13.68" pos="64.24" lane="2/3to1/3_0" slope="0.00"/>
        <vehicle id="5" x="401.65" y="651.74" angle="180.00" type="DEFAULT_VEHTYPE" speed="11.83" pos="46.99" lane="2/3to2/4_0" slope="0.00"/>
        <vehicle id="6" x="237.80" y="398.35" angle="90.00" type="DEFAULT_VEHTYPE" speed="9.65" pos="33.05" lane="1/2to2/2_0" slope="0.00"/>
        <vehicle id="7" x="401.65" y="27.22" angle="180.00" type="DEFAULT_VEHTYPE" speed="8.46" pos="27.22" lane="2/0to2/1_0" slope="0.00"/>
        <vehicle id="8" x="398.35" y="176.72" angle="0.00" type="DEFAULT_VEHTYPE" speed="6.47" pos="18.53" lane="2/1to2/0_0" slope="0.00"/>
        <vehicle id="9" x="201.65" y="415.16" angle="180.00" type="DEFAULT_VEHTYPE" speed="3.35" pos="10.41" lane="1/2to1/3_0" slope="0.00"/>
    </timestep>
    <timestep time="12.00">
        <vehicle id="0" x="678.46" y="601.65" angle="-90.00" type="DEFAULT_VEHTYPE" speed="13.81" pos="121.54" lane="4/3to3/3_0" slope="0.00"/>
        <vehicle id="1" x="280.05" y="601.65" angle="-90.00" type="DEFAULT_VEHTYPE" speed="12.61" pos="115.20" lane="2/3to1/3_0" slope="0.00"/>
        <vehicle id="10" x="398.35" y="187.78" angle="0.00" type="DEFAULT_VEHTYPE" speed="2.37" pos="7.47" lane="2/1to2/0_0" slope="0.00"/>
        <vehicle id="11" x="598.35" y="793.24" angle="0.00" type="DEFAULT_VEHTYPE" speed="1.66" pos="6.76" lane="3/4to3/3_0" slope="0.00"/>
        <vehicle id="12" x="398.35" y="590.15" angle="0.00" type="DEFAULT_VEHTYPE" speed="0.00" pos="5.10" lane="2/3to2/2_0" slope="0.00"/>
        <vehicle id="2" x="92.01" y="201.65" angle="-90.00" type="DEFAULT_VEHTYPE" speed="13.49" pos="103.24" lane="1/1to0/1_0" slope="0.00"/>
        <vehicle id="3" x="398.35" y="315.58" angle="0.00" type="DEFAULT_VEHTYPE" speed="13.46" pos="79.67" lane="2/2to2/1_0" slope="0.00"/>
        <vehicle id="4" x="317.34" y="601.65" angle="-90.00" type="DEFAULT_VEHTYPE" speed="13.67" pos="77.91" lane="2/3to1/3_0" slope="0.00"/>
        <vehicle id="5" x="401.65" y="665.52" angle="180.00" type="DEFAULT_VEHTYPE" speed="13.79" pos="60.77" lane="2/3to2/4_0" slope="0.00"/>
        <vehicle id="6" x="249.31" y="398.35" angle="90.00" type="DEFAULT_VEHTYPE" speed="11.51" pos="44.56" lane="1/2to2/2_0" slope="0.00"/>
        <vehicle id="7" x="401.65" y="38.01" angle="180.00" type="DEFAULT_VEHTYPE" speed="10.79" pos="38.01" lane="2/0to2/1_0" slope="0.00"/>
        <vehicle id="8" x="398.35" y="167.71" angle="0.00" type="DEFAULT_VEHTYPE" speed="9.01" pos="27.54" lane="2/1to2/0_0" slope="0.00"/>
        <vehicle id="9" x="201.65" y="421.01" angle="180.00" type="DEFAULT_VEHTYPE" speed="5.85" pos="16.26" lane="1/2to1/3_0" slope="0.00"/>
    </timestep>
    <timestep time="13.00">
        <vehicle id="0" x="664.83" y="601.65" angle="-90.00" type="DEFAULT_VEHTYPE" speed="13.62" pos="135.17" lane="4/3to3/3_0" slope="0.00"/>
        <vehicle id="1" x="266.70" y="601.65" angle="-90.00" type="DEFAULT_VEHTYPE" speed="13.35" pos="128.55" lane="2/3to1/3_0" slope="0.00"/>
        <vehicle id="10" x="398.35" y="183.36" angle="0.00" type="DEFAULT_VEHTYPE" speed="4.42" pos="11.89" lane="2/1to2/0_0" slope="0.00"/>
        <vehicle id="11" x="598.35" y="789.01" angle="0.00" type="DEFAULT_VEHTYPE" speed="4.23" pos="10.99" lane="3/4to3/3_0" slope="0.00"/>
        <vehicle id="12" x="398.35" y="587.94" angle="0.00" type="DEFAULT_VEHTYPE" speed="2.21" pos="7.31" lane="2/3to2/2_0" slope="0.00"/>
        <vehicle id="13" x="590.15" y="601.65" angle="-90.00" type="DEFAULT_VEHTYPE" speed="0.00" pos="5.10" lane="3/3to2/3_0" slope="0.00"/>
        <vehicle id="2" x="78.91" y="201.65" angle="-90.00" type="DEFAULT_VEHTYPE" speed="13.10" pos="116.34" lane="1/1to0/1_0" slope="0.00"/>
        <vehicle id="3" x="398.35" y="302.19" angle="0.00" type="DEFAULT_VEHTYPE" speed="13.39" pos="93.06" lane="2/2to2/1_0" slope="0.00"/>
        <vehicle id="4" x="304.32" y="601.65" angle="-90.00" type="DEFAULT_VEHTYPE" speed="13.02" pos="90.93" lane="2/3to1/3_0" slope="0.00"/>
        <vehicle id="5" x="401.65" y="678.76" angle="180.00" type="DEFAULT_VEHTYPE" speed="13.23" pos="74.01" lane="2/3to2/4_0" slope="0.00"/>
        <vehicle id="6" x="262.14" y="398.35" angle="90.00" type="DEFAULT_VEHTYPE" speed="12.83" pos="57.39" lane="1/2to2/2_0" slope="0.00"/>
        <vehicle id="7" x="401.65" y="50.64" angle="180.00" type="DEFAULT_VEHTYPE" speed="12.63" pos="50.64" lane="2/0to2/1_0" slope="0.00"/>
        <vehicle id="8" x="398.35" y="156.57" angle="0.00" type="DEFAULT_VEHTYPE" speed="11.14" pos="38.68" lane="2/1to2/0_0" slope="0.00"/>
        <vehicle id="9" x="201.65" y="428.19" angle="180.00" type="DEFAULT_VEHTYPE" speed="7.18" pos="23.44" lane="1/2to1/3_0" slope="0.00"/>
    </timestep>
    <timestep time="14.00">
        <vehicle id="0" x="651.07" y="601.65" angle="-90.00" type="DEFAULT_VEHTYPE" speed="13.76" pos="148.93" lane="4/3to3/3_0" slope="0.00"/>
        <vehicle id="1" x="253.62" y="601.65" angle="-90.00" type="DEFAULT_VEHTYPE" speed="13.09" pos="141.63" lane="2/3to1/3_0" slope="0.00"/>
        <vehicle id="10" x="398.35" y="177.48" angle="0.00" type="DEFAULT_VEHTYPE" speed="5.89" pos="17.77" lane="2/1to2/0_0" slope="0.00"/>
        <vehicle id="11" x="598.35" y="782.56" angle="0.00" type="DEFAULT_VEHTYPE" speed="6.45" pos="17.44" lane="3/4to3/3_0" slope="0.00"/>
        <vehicle id="12" x="398.35" y="583.67" angle="0.00" type="DEFAULT_VEHTYPE" speed="4.27" pos="11.58" lane="2/3to2/2_0" slope="0.00"/>
        <vehicle id="13" x="588.00" y="601.65" angle="-90.00" type="DEFAULT_VEHTYPE" speed="2.15" pos="7.25" lane="3/3to2/3_0" slope="0.00"/>
        <vehicle id="14" x="198.35" y="590.15" angle="0.00" type="DEFAULT_VEHTYPE" speed="0.00" pos="5.10" lane="1/3to1/2_0" slope="0.00"/>
        <vehicle id="2" x="66.22" y="201.65" angle="-90.00" type="DEFAULT_VEHTYPE" speed="12.70" pos="129.03" lane="1/1to0/1_0" slope="0.00"/>
        <vehicle id="3" x="398.35" y="288.93" angle="0.00" type="DEFAULT_VEHTYPE" speed="13.26" pos="106.32" lane="2/2to2/1_0" slope="0.00"/>
        <vehicle id="4" x="291.56" y="601.65" angle="-90.00" type="DEFAULT_VEHTYPE" speed="12.76" pos="103.69" lane="2/3to1/3_0" slope="0.00"/>
        <vehicle id="5" x="401.65" y="692.10" angle="180.00" type="DEFAULT_VEHTYPE" speed="13.35" pos="87.35" lane="2/3to2/4_0" slope="0.00"/>
        <vehicle id="6" x="275.11" y="398.35" angle="90.00" type="DEFAULT_VEHTYPE" speed="12.98" pos="70.36" lane="1/2to2/2_0" slope="0.00"/>
        <vehicle id="7" x="401.65" y="63.95" angle="180.00" type="DEFAULT_VEHTYPE" speed="13.31" pos="63.95" lane="2/0to2/1_0" slope="0.00"/>
        <vehicle id="8" x="398.35" y="143.58" angle="0.00" type="DEFAULT_VEHTYPE" speed="12.99" pos="51.67" lane="2/1to2/0_0" slope="0.00"/>
        <vehicle id="9" x="201.65" y="436.71" angle="180.00" type="DEFAULT_VEHTYPE" speed="8.52" pos="31.96" lane="1/2to1/3_0" slope="0.00"/>
    </timestep>
    <timestep time="15.00">
        <vehicle id="0" x="638.08" y="601.65" angle="-90.00" type="DEFAULT_VEHTYPE" speed="12.99" pos="161.92" lane="4/3to3/3_0" slope="0.00"/>
        <vehicle id="1" x="240.32" y="601.65" angle="-90.00" type="DEFAULT_VEHTYPE" speed="13.29" pos="154.93" lane="2/3to1/3_0" slope="0.00"/>
        <vehicle id="10" x="398.35" y="169.92" angle="0.00" type="DEFAULT_VEHTYPE" speed="7.56" pos="25.33" lane="2/1to2/0_0" slope="0.00"/>
        <vehicle id="11" x="598.35" y="774.00" angle="0.00" type="DEFAULT_VEHTYPE" speed="8.56" pos="26.00" lane="3/4to3/3_0" slope="0.00"/>
        <vehicle id="12" x="398.35" y="577.42" angle="0.00" type="DEFAULT_VEHTYPE" speed="6.25" pos="17.83" lane="2/3to2/2_0" slope="0.00"/>
        <vehicle id="13" x="583.30" y="601.65" angle="-90.00" type="DEFAULT_VEHTYPE" speed="4.70" pos="11.95" lane="3/3to2/3_0" slope="0.00"/>
        <vehicle id="14" x="198.35" y="588.06" angle="0.00" type="DEFAULT_VEHTYPE" speed="2.09" pos="7.19" lane="1/3to1/2_0" slope="0.00"/>
        <vehicle id="15" x="398.35" y="190.15" angle="0.00" type="DEFAULT_VEHTYPE" speed="0.00" pos="5.10" lane="2/1to2/0_0" slope="0.00"/>
        <vehicle id="2" x="53.18" y="201.65" angle="-90.00" type="DEFAULT_VEHTYPE" speed="13.04" pos="142.07" lane="1/1to0/1_0" slope="0.00"/>
        <vehicle id="3" x="398.35" y="276.04" angle="0.00" type="DEFAULT_VEHTYPE" speed="12.88" pos="119.21" lane="2/2to2/1_0" slope="0.00"/>
        <vehicle id="4" x="277.79" y="601.65" angle="-90.00" type="DEFAULT_VEHTYPE" speed="13.77" pos="117.46" lane="2/3to1/3_0" slope="0.00"/>
        <vehicle id="5" x="401.65" y="705.64" angle="180.00" type="DEFAULT_VEHTYPE" speed="13.53" pos="100.89" lane="2/3to2/4_0" slope="0.00"/>
        <vehicle id="6" x="288.09" y="398.35" angle="90.00" type="DEFAULT_VEHTYPE" speed="12.97" pos="83.34" lane="1/2to2/2_0" slope="0.00"/>
        <vehicle id="7" x="401.65" y="77.68" angle="180.00" type="DEFAULT_VEHTYPE" speed="13.74" pos="77.68" lane="2/0to2/1_0" slope="0.00"/>
        <vehicle id="8" x="398.35" y="129.87" angle="0.00" type="DEFAULT_VEHTYPE" speed="13.72" pos="65.38" lane="2/1to2/0_0" slope="0.00"/>
        <vehicle id="9" x="201.65" y="446.68" angle="180.00" type="DEFAULT_VEHTYPE" speed="9.97" pos="41.93" lane="1/2to1/3_0" slope="0.00"/>
    </timestep>
    <timestep time="16.00">
        <vehicle id="0" x="626.20" y="601.65" angle="-90.00" type="DEFAULT_VEHTYPE" speed="11.88" pos="173.80" lane="4/3to3/3_0" slope="0.00"/>
        <vehicle id="1" x="228.09" y="601.65" angle="-90.00" type="DEFAULT_VEHTYPE" speed="12.23" pos="167.16" lane="2/3to1/3_0" slope="0.00"/>
        <vehicle id="10" x="398.35" y="160.12" angle="0.00" type="DEFAULT_VEHTYPE" speed="9.80" pos="35.13" lane="2/1to2/0_0" slope="0.00"/>
        <vehicle id="11" x="598.35" y="763.61" angle="0.00" type="DEFAULT_VEHTYPE" speed="10.39" pos="36.39" lane="3/4to3/3_0" slope="0.00"/>
        <vehicle id="12" x="398.35" y="569.32" angle="0.00" type="DEFAULT_VEHTYPE" speed="8.10" pos="25.93" lane="2/3to2/2_0" slope="0.00"/>
        <vehicle id="13" x="576.13" y="601.65" angle="-90.00" type="DEFAULT_VEHTYPE" speed="7.17" pos="19.12" lane="3/3to2/3_0" slope="0.00"/>
        <vehicle id="14" x="198.35" y="584.48" angle="0.00" type="DEFAULT_VEHTYPE" speed="3.58" pos="10.77" lane="1/3to1/2_0" slope="0.00"/>
        <vehicle id="15" x="398.35" y="188.32" angle="0.00" type="DEFAULT_VEHTYPE" speed="1.83" pos="6.93" lane="2/1to2/0_0" slope="0.00"/>
        <vehicle id="16" x="598.35" y="390.15" angle="0.00" type="DEFAULT_VEHTYPE" speed="0.00" pos="5.10" lane="3/2to3/1_0" slope="0.00"/>
        <vehicle id="2" x="39.48" y="201.65" angle="-90.00" type="DEFAULT_VEHTYPE" speed="13.70" pos="155.77" lane="1/1to0/1_0" slope="0.00"/>
        <vehicle id="3" x="398.35" y="263.32" angle="0.00" type="DEFAULT_VEHTYPE" speed="12.72" pos="131.93" lane="2/2to2/1_0" slope="0.00"/>
        <vehicle id="4" x="265.16" y="601.65" angle="-90.00" type="DEFAULT_VEHTYPE" speed="12.63" pos="130.09" lane="2/3to1/3_0" slope="0.00"/>
        <vehicle id="5" x="401.65" y="719.09" angle="180.00" type="DEFAULT_VEHTYPE" speed="13.45" pos="114.34" lane="2/3to2/4_0" slope="0.00"/>
        <vehicle id="6" x="301.12" y="398.35" angle="90.00" type="DEFAULT_VEHTYPE" speed="13.04" pos="96.37" lane="1/2to2/2_0" slope="0.00"/>
        <vehicle id="7" x="401.65" y="91.02" angle="180.00" type="DEFAULT_VEHTYPE" speed="13.34" pos="91.02" lane="2/0to2/1_0" slope="0.00"/>
        <vehicle id="8" x="398.35" y="116.46" angle="0.00" type="DEFAULT_VEHTYPE" speed="13.41" pos="78.79" lane="2/1to2/0_0" slope="0.00"/>
        <vehicle id="9" x="201.65" y="458.36" angle="180.00" type="DEFAULT_VEHTYPE" speed="11.68" pos="53.61" lane="1/2to1/3_0" slope="0.00"/>
    </timestep>
    <timestep time="17.00">
        <vehicle id="0" x="617.72" y="601.65" angle="-90.00" type="DEFAULT_VEHTYPE" speed="8.48" pos="182.28" lane="4/3to3/3_0" slope="0.00"/>
        <vehicle id="1" x="219.40" y="601.65" angle="-90.00" type="DEFAULT_VEHTYPE" speed="8.69" pos="175.85" lane="2/3to1/3_0" slope="0.00"/>
        <vehicle id="10" x="398.35" y="147.94" angle="0.00" type="DEFAULT_VEHTYPE" speed="12.18" pos="47.31" lane="2/1to2/0_0" slope="0.00"/>
        <vehicle id="11" x="598.35" y="751.23" angle="0.00" type="DEFAULT_VEHTYPE" speed="12.38" pos="48.77" lane="3/4to3/3_0" slope="0.00"/>
        <vehicle id="12" x="398.35" y="559.06" angle="0.00" type="DEFAULT_VEHTYPE" speed="10.26" pos="36.19" lane="2/3to2/2_0" slope="0.00"/>
        <vehicle id="13" x="566.37" y="601.65" angle="-90.00" type="DEFAULT_VEHTYPE" speed="9.76" pos="28.88" lane="3/3to2/3_0" slope="0.00"/>
        <vehicle id="14" x="198.35" y="579.16" angle="0.00" type="DEFAULT_VEHTYPE" speed="5.32" pos="16.09" lane="1/3to1/2_0" slope="0.00"/>
        <vehicle id="15" x="398.35" y="185.06" angle="0.00" type="DEFAULT_VEHTYPE" speed="3.26" pos="10.19" lane="2/1to2/0_0" slope="0.00"/>
        <vehicle id="16" x="598.35" y="388.74" angle="0.00" type="DEFAULT_VEHTYPE" speed="1.41" pos="6.51" lane="3/2to3/1_0" slope="0.00"/>
        <vehicle id="17" x="398.35" y="390.15" angle="0.00" type="DEFAULT_VEHTYPE" speed="0.00" pos="5.10" lane="2/2to2/1_0" slope="0.00"/>
        <vehicle id="2" x="26.29" y="201.65" angle="-90.00" type="DEFAULT_VEHTYPE" speed="13.19" pos="168.96" lane="1/1to0/1_0" slope="0.00"/>
        <vehicle id="3" x="398.35" y="249.44" angle="0.00" type="DEFAULT_VEHTYPE" speed="13.88" pos="145.81" lane="2/2to2/1_0" slope="0.00"/>
        <vehicle id="4" x="252.33" y="601.65" angle="-90.00" type="DEFAULT_VEHTYPE" speed="12.83" pos="142.92" lane="2/3to1/3_0" slope="0.00"/>
        <vehicle id="5" x="401.65" y="731.72" angle="180.00" type="DEFAULT_VEHTYPE" speed="12.62" pos="126.97" lane="2/3to2/4_0" slope="0.00"/>
        <vehicle id="6" x="313.87" y="398.35" angle="90.00" type="DEFAULT_VEHTYPE" speed="12.75" pos="109.12" lane="1/2to2/2_0" slope="0.00"/>
        <vehicle id="7" x="401.65" y="104.30" angle="180.00" type="DEFAULT_VEHTYPE" speed="13.27" pos="104.30" lane="2/0to2/1_0" slope="0.00"/>
        <vehicle id="8" x="398.35" y="103.01" angle="0.00" type="DEFAULT_VEHTYPE" speed="13.45" pos="92.24" lane="2/1to2/0_0" slope="0.00"/>
        <vehicle id="9" x="201.65" y="471.22" angle="180.00" type="DEFAULT_VEHTYPE" speed="12.86" pos="66.47" lane="1/2to1/3_0" slope="0.00"/>
    </timestep>
    <timestep time="18.00">
        <vehicle id="0" x="611.54" y="601.65" angle="-90.00" type="DEFAULT_VEHTYPE" speed="6.19" pos="188.46" lane="4/3to3/3_0" slope="0.00"/>
        <vehicle id="1" x="213.70" y="601.65" angle="-90.00" type="DEFAULT_VEHTYPE" speed="5.70" pos="181.55" lane="2/3to1/3_0" slope="0.00"/>
        <vehicle id="10" x="398.35" y="135.25" angle="0.00" type="DEFAULT_VEHTYPE" speed="12.68" pos="60.00" lane="2/1to2/0_0" slope="0.00"/>
        <vehicle id="11" x="598.35" y="738.42" angle="0.00" type="DEFAULT_VEHTYPE" speed="12.80" pos="61.58" lane="3/4to3/3_0" slope="0.00"/>
        <vehicle id="12" x="398.35" y="546.63" angle="0.00" type="DEFAULT_VEHTYPE" speed="12.43" pos="48.62" lane="2/3to2/2_0" slope="0.00"/>
        <vehicle id="13" x="554.27" y="601.65" angle="-90.00" type="DEFAULT_VEHTYPE" speed="12.09" pos="40.98" lane="3/3to2/3_0" slope="0.00"/>
        <vehicle id="14" x="198.35" y="571.43" angle="0.00" type="DEFAULT_VEHTYPE" speed="7.72" pos="23.82" lane="1/3to1/2_0" slope="0.00"/>
        <vehicle id="15" x="398.35" y="179.83" angle="0.00" type="DEFAULT_VEHTYPE" speed="5.23" pos="15.42" lane="2/1to2/0_0" slope="0.00"/>
        <vehicle id="16" x="598.35" y="385.32" angle="0.00" type="DEFAULT_VEHTYPE" speed="3.43" pos="9.93" lane="3/2to3/1_0" slope="0.00"/>
        <vehicle id="17" x="398.35" y="387.70" angle="0.00" type="DEFAULT_VEHTYPE" speed="2.45" pos="7.55" lane="2/2to2/1_0" slope="0.00"/>
        <vehicle id="18" x="209.85" y="398.35" angle="90.00" type="DEFAULT_VEHTYPE" speed="0.00" pos="5.10" lane="1/2to2/2_0" slope="0.00"/>
        <vehicle id="2" x="12.93" y="201.65" angle="-90.00" type="DEFAULT_VEHTYPE" speed="13.36" pos="182.32" lane="1/1to0/1_0" slope="0.00"/>
        <vehicle id="3" x="398.35" y="236.64" angle="0.00" type="DEFAULT_VEHTYPE" speed="12.79" pos="158.61" lane="2/2to2/1_0" slope="0.00"/>
        <vehicle id="4" x="239.06" y="601.65" angle="-90.00" type="DEFAULT_VEHTYPE" speed="13.27" pos="156.19" lane="2/3to1/3_0" slope="0.00"/>
        <vehicle id="5" x="401.65" y="744.55" angle="180.00" type="DEFAULT_VEHTYPE" speed="12.83" pos="139.80" lane="2/3to2/4_0" slope="0.00"/>
        <vehicle id="6" x="327.26" y="398.35" angle="90.00" type="DEFAULT_VEHTYPE" speed="13.39" pos="122.51" lane="1/2to2/2_0" slope="0.00"/>
        <vehicle id="7" x="401.65" y="116.90" angle="180.00" type="DEFAULT_VEHTYPE" speed="12.60" pos="116.90" lane="2/0to2/1_0" slope="0.00"/>
        <vehicle id="8" x="398.35" y="90.13" angle="0.00" type="DEFAULT_VEHTYPE" speed="12.88" pos="105.12" lane="2/1to2/0_0" slope="0.00"/>
        <vehicle id="9" x="201.65" y="484.52" angle="180.00" type="DEFAULT_VEHTYPE" speed="13.30" pos="79.77" lane="1/2to1/3_0" slope="0.00"/>
    </timestep>
    <timestep time="19.00">
        <vehicle id="0" x="603.19" y="601.43" angle="-87.44" type="DEFAULT_VEHTYPE" speed="8.36" pos="1.58" lane=":3/3_6_0" slope="0.00"/>
        <vehicle id="1" x="209.93" y="601.65" angle="-90.00" type="DEFAULT_VEHTYPE" speed="3.77" pos="185.32" lane="2/3to1/3_0" slope="0.00"/>
        <vehicle id="10" x="398.35" y="121.65" angle="0.00" type="DEFAULT_VEHTYPE" speed="13.61" pos="73.60" lane="2/1to2/0_0" slope="0.00"/>
        <vehicle id="11" x="598.35" y="725.72" angle="0.00" type="DEFAULT_VEHTYPE" speed="12.70" pos="74.28" lane="3/4to3/3_0" slope="0.00"/>
        <vehicle id="12" x="398.35" y="533.15" angle="0.00" type="DEFAULT_VEHTYPE" speed="13.48" pos="62.10" lane="2/3to2/2_0" slope="0.00"/>
        <vehicle id="13" x="540.70" y="601.65" angle="-90.00" type="DEFAULT_VEHTYPE" speed="13.57" pos="54.55" lane="3/3to2/3_0" slope="0.00"/>
        <vehicle id="14" x="198.35" y="562.22" angle="0.00" type="DEFAULT_VEHTYPE" speed="9.22" pos="33.03" lane="1/3to1/2_0" slope="0.00"/>
        <vehicle id="15" x="398.35" y="172.13" angle="0.00" type="DEFAULT_VEHTYPE" speed="7.70" pos="23.12" lane="2/1to2/0_0" slope="0.00"/>
        <vehicle id="16" x="598.35" y="379.90" angle="0.00" type="DEFAULT_VEHTYPE" speed="5.42" pos="15.35" lane="3/2to3/1_0" slope="0.00"/>
        <vehicle id="17" x="398.35" y="383.69" angle="0.00" type="DEFAULT_VEHTYPE" speed="4.01" pos="11.56" lane="2/2to2/1_0" slope="0.00"/>