<?xml version="1.0" encoding="UTF-8"?>

<!-- generated on Thu Oct 31 13:36:11 2013 by SUMO sumo Version 0.18.0
<?xml version="1.0" encoding="UTF-8"?>

<configuration xmlns:xsi="http://www.w3.org/2001/XMLSchema-instance" xsi:noNamespaceSchemaLocation="http://sumo.sf.net/xsd/sumoConfiguration.xsd">

    <input>
        <net-file value="test.net.xml"/>
        <route-files value="test.rou.xml"/>
        <additional-files value="test.rerouter.xml"/>
    </input>

    <output>
        <fcd-output value="test-15.fcd.xml"/>
        <save-state.prefix value="state"/>
    </output>

    <time>
        <begin value="0"/>
        <end value="800"/>
    </time>

    <gui_only>
        <gui-settings-file value="test.settings.xml"/>
    </gui_only>

</configuration>
-->

<fcd-export>
    <timestep time="0.00">
        <vehicle id="0" x="409.85" y="398.35" angle="90.00" type="DEFAULT_VEHTYPE" speed="0.00" pos="5.10" lane="2/2to3/2_0" slope="0.00"/>
    </timestep>
    <timestep time="1.00">
        <vehicle id="0" x="411.29" y="398.35" angle="90.00" type="DEFAULT_VEHTYPE" speed="1.44" pos="6.54" lane="2/2to3/2_0" slope="0.00"/>
        <vehicle id="1" x="590.15" y="601.65" angle="-90.00" type="DEFAULT_VEHTYPE" speed="0.00" pos="5.10" lane="3/3to2/3_0" slope="0.00"/>
    </timestep>
    <timestep time="2.00">
        <vehicle id="0" x="414.41" y="398.35" angle="90.00" type="DEFAULT_VEHTYPE" speed="3.12" pos="9.66" lane="2/2to3/2_0" slope="0.00"/>
        <vehicle id="1" x="587.61" y="601.65" angle="-90.00" type="DEFAULT_VEHTYPE" speed="2.54" pos="7.64" lane="3/3to2/3_0" slope="0.00"/>
        <vehicle id="2" x="609.85" y="198.35" angle="90.00" type="DEFAULT_VEHTYPE" speed="0.00" pos="5.10" lane="3/1to4/1_0" slope="0.00"/>
    </timestep>
    <timestep time="3.00">
        <vehicle id="0" x="419.48" y="398.35" angle="90.00" type="DEFAULT_VEHTYPE" speed="5.08" pos="14.73" lane="2/2to3/2_0" slope="0.00"/>
        <vehicle id="1" x="583.24" y="601.65" angle="-90.00" type="DEFAULT_VEHTYPE" speed="4.37" pos="12.01" lane="3/3to2/3_0" slope="0.00"/>
        <vehicle id="2" x="612.39" y="198.35" angle="90.00" type="DEFAULT_VEHTYPE" speed="2.54" pos="7.64" lane="3/1to4/1_0" slope="0.00"/>
        <vehicle id="3" x="598.35" y="390.15" angle="0.00" type="DEFAULT_VEHTYPE" speed="0.00" pos="5.10" lane="3/2to3/1_0" slope="0.00"/>
    </timestep>
    <timestep time="4.00">
        <vehicle id="0" x="426.19" y="398.35" angle="90.00" type="DEFAULT_VEHTYPE" speed="6.71" pos="21.44" lane="2/2to3/2_0" slope="0.00"/>
        <vehicle id="1" x="576.58" y="601.65" angle="-90.00" type="DEFAULT_VEHTYPE" speed="6.65" pos="18.67" lane="3/3to2/3_0" slope="0.00"/>
        <vehicle id="2" x="616.83" y="198.35" angle="90.00" type="DEFAULT_VEHTYPE" speed="4.43" pos="12.08" lane="3/1to4/1_0" slope="0.00"/>
        <vehicle id="3" x="598.35" y="388.52" angle="0.00" type="DEFAULT_VEHTYPE" speed="1.63" pos="6.73" lane="3/2to3/1_0" slope="0.00"/>
        <vehicle id="4" x="794.90" y="401.65" angle="-90.00" type="DEFAULT_VEHTYPE" speed="0.00" pos="5.10" lane="4/2to3/2_0" slope="0.00"/>
    </timestep>
    <timestep time="5.00">
        <vehicle id="0" x="435.50" y="398.35" angle="90.00" type="DEFAULT_VEHTYPE" speed="9.30" pos="30.75" lane="2/2to3/2_0" slope="0.00"/>
        <vehicle id="1" x="568.21" y="601.65" angle="-90.00" type="DEFAULT_VEHTYPE" speed="8.38" pos="27.04" lane="3/3to2/3_0" slope="0.00"/>
        <vehicle id="2" x="623.26" y="198.35" angle="90.00" type="DEFAULT_VEHTYPE" speed="6.43" pos="18.51" lane="3/1to4/1_0" slope="0.00"/>
        <vehicle id="3" x="598.35" y="384.88" angle="0.00" type="DEFAULT_VEHTYPE" speed="3.64" pos="10.37" lane="3/2to3/1_0" slope="0.00"/>
        <vehicle id="4" x="793.04" y="401.65" angle="-90.00" type="DEFAULT_VEHTYPE" speed="1.86" pos="6.96" lane="4/2to3/2_0" slope="0.00"/>
        <vehicle id="5" x="390.15" y="601.65" angle="-90.00" type="DEFAULT_VEHTYPE" speed="0.00" pos="5.10" lane="2/3to1/3_0" slope="0.00"/>
    </timestep>
    <timestep time="6.00">
        <vehicle id="0" x="447.06" y="398.35" angle="90.00" type="DEFAULT_VEHTYPE" speed="11.56" pos="42.31" lane="2/2to3/2_0" slope="0.00"/>
        <vehicle id="1" x="557.31" y="601.65" angle="-90.00" type="DEFAULT_VEHTYPE" speed="10.90" pos="37.94" lane="3/3to2/3_0" slope="0.00"/>
        <vehicle id="2" x="631.15" y="198.35" angle="90.00" type="DEFAULT_VEHTYPE" speed="7.89" pos="26.40" lane="3/1to4/1_0" slope="0.00"/>
        <vehicle id="3" x="598.35" y="379.05" angle="0.00" type="DEFAULT_VEHTYPE" speed="5.83" pos="16.20" lane="3/2to3/1_0" slope="0.00"/>
        <vehicle id="4" x="789.46" y="401.65" angle="-90.00" type="DEFAULT_VEHTYPE" speed="3.58" pos="10.54" lane="4/2to3/2_0" slope="0.00"/>
        <vehicle id="5" x="387.61" y="601.65" angle="-90.00" type="DEFAULT_VEHTYPE" speed="2.54" pos="7.64" lane="2/3to1/3_0" slope="0.00"/>
        <vehicle id="6" x="601.65" y="609.85" angle="180.00" type="DEFAULT_VEHTYPE" speed="0.00" pos="5.10" lane="3/3to3/4_0" slope="0.00"/>
    </timestep>
    <timestep time="7.00">
        <vehicle id="0" x="460.29" y="398.35" angle="90.00" type="DEFAULT_VEHTYPE" speed="13.23" pos="55.54" lane="2/2to3/2_0" slope="0.00"/>
        <vehicle id="1" x="544.21" y="601.65" angle="-90.00" type="DEFAULT_VEHTYPE" speed="13.10" pos="51.04" lane="3/3to2/3_0" slope="0.00"/>
        <vehicle id="2" x="640.81" y="198.35" angle="90.00" type="DEFAULT_VEHTYPE" speed="9.67" pos="36.06" lane="3/1to4/1_0" slope="0.00"/>
        <vehicle id="3" x="598.35" y="371.85" angle="0.00" type="DEFAULT_VEHTYPE" speed="7.20" pos="23.40" lane="3/2to3/1_0" slope="0.00"/>
        <vehicle id="4" x="784.36" y="401.65" angle="-90.00" type="DEFAULT_VEHTYPE" speed="5.10" pos="15.64" lane="4/2to3/2_0" slope="0.00"/>
        <vehicle id="5" x="383.62" y="601.65" angle="-90.00" type="DEFAULT_VEHTYPE" speed="3.99" pos="11.63" lane="2/3to1/3_0" slope="0.00"/>
        <vehicle id="6" x="601.65" y="611.93" angle="180.00" type="DEFAULT_VEHTYPE" speed="2.08" pos="7.18" lane="3/3to3/4_0" slope="0.00"/>
        <vehicle id="7" x="5.10" y="398.35" angle="90.00" type="DEFAULT_VEHTYPE" speed="0.00" pos="5.10" lane="0/2to1/2_0" slope="0.00"/>
    </timestep>
    <timestep time="8.00">
        <vehicle id="0" x="473.48" y="398.35" angle="90.00" type="DEFAULT_VEHTYPE" speed="13.19" pos="68.73" lane="2/2to3/2_0" slope="0.00"/>
        <vehicle id="1" x="530.61" y="601.65" angle="-90.00" type="DEFAULT_VEHTYPE" speed="13.59" pos="64.64" lane="3/3to2/3_0" slope="0.00"/>
        <vehicle id="2" x="653.04" y="198.35" angle="90.00" type="DEFAULT_VEHTYPE" speed="12.22" pos="48.29" lane="3/1to4/1_0" slope="0.00"/>
        <vehicle id="3" x="598.35" y="362.43" angle="0.00" type="DEFAULT_VEHTYPE" speed="9.41" pos="32.82" lane="3/2to3/1_0" slope="0.00"/>
        <vehicle id="4" x="777.65" y="401.65" angle="-90.00" type="DEFAULT_VEHTYPE" speed="6.71" pos="22.35" lane="4/2to3/2_0" slope="0.00"/>
        <vehicle id="5" x="377.24" y="601.65" angle="-90.00" type="DEFAULT_VEHTYPE" speed="6.38" pos="18.01" lane="2/3to1/3_0" slope="0.00"/>
        <vehicle id="6" x="601.65" y="615.38" angle="180.00" type="DEFAULT_VEHTYPE" speed="3.44" pos="10.63" lane="3/3to3/4_0" slope="0.00"/>
        <vehicle id="7" x="7.66" y="398.35" angle="90.00" type="DEFAULT_VEHTYPE" speed="2.56" pos="7.66" lane="0/2to1/2_0" slope="0.00"/>
        <vehicle id="8" x="201.65" y="209.85" angle="180.00" type="DEFAULT_VEHTYPE" speed="0.00" pos="5.10" lane="1/1to1/2_0" slope="0.00"/>
    </timestep>
    <timestep time="9.00">
        <vehicle id="0" x="486.49" y="398.35" angle="90.00" type="DEFAULT_VEHTYPE" speed="13.01" pos="81.74" lane="2/2to3/2_0" slope="0.00"/>
        <vehicle id="1" x="517.15" y="601.65" angle="-90.00" type="DEFAULT_VEHTYPE" speed="13.47" pos="78.10" lane="3/3to2/3_0" slope="0.00"/>
        <vehicle id="2" x="666.77" y="198.35" angle="90.00" type="DEFAULT_VEHTYPE" speed="13.73" pos="62.02" lane="3/1to4/1_0" slope="0.00"/>
        <vehicle id="3" x="598.35" y="350.58" angle="0.00" type="DEFAULT_VEHTYPE" speed="11.85" pos="44.67" lane="3/2to3/1_0" slope="0.00"/>
        <vehicle id="4" x="768.87" y="401.65" angle="-90.00" type="DEFAULT_VEHTYPE" speed="8.77" pos="31.13" lane="4/2to3/2_0" slope="0.00"/>
        <vehicle id="5" x="369.52" y="601.65" angle="-90.00" type="DEFAULT_VEHTYPE" speed="7.73" pos="25.73" lane="2/3to1/3_0" slope="0.00"/>
        <vehicle id="6" x="601.65" y="621.07" angle="180.00" type="DEFAULT_VEHTYPE" speed="5.70" pos="16.32" lane="3/3to3/4_0" slope="0.00"/>
        <vehicle id="7" x="12.53" y="398.35" angle="90.00" type="DEFAULT_VEHTYPE" speed="4.87" pos="12.53" lane="0/2to1/2_0" slope="0.00"/>
        <vehicle id="8" x="201.65" y="212.23" angle="180.00" type="DEFAULT_VEHTYPE" speed="2.38" pos="7.48" lane="1/1to1/2_0" slope="0.00"/>
        <vehicle id="9" x="590.15" y="601.65" angle="-90.00" type="DEFAULT_VEHTYPE" speed="0.00" pos="5.10" lane="3/3to2/3_0" slope="0.00"/>
    </timestep>
    <timestep time="10.00">
        <vehicle id="0" x="499.65" y="398.35" angle="90.00" type="DEFAULT_VEHTYPE" speed="13.16" pos="94.90" lane="2/2to3/2_0" slope="0.00"/>
        <vehicle id="1" x="504.30" y="601.65" angle="-90.00" type="DEFAULT_VEHTYPE" speed="12.84" pos="90.95" lane="3/3to2/3_0" slope="0.00"/>
        <vehicle id="10" x="398.35" y="390.15" angle="0.00" type="DEFAULT_VEHTYPE" speed="0.00" pos="5.10" lane="2/2to2/1_0" slope="0.00"/>
        <vehicle id="2" x="680.55" y="198.35" angle="90.00" type="DEFAULT_VEHTYPE" speed="13.78" pos="75.80" lane="3/1to4/1_0" slope="0.00"/>
        <vehicle id="3" x="598.35" y="337.55" angle="0.00" type="DEFAULT_VEHTYPE" speed="13.03" pos="57.70" lane="3/2to3/1_0" slope="0.00"/>
        <vehicle id="4" x="758.43" y="401.65" angle="-90.00" type="DEFAULT_VEHTYPE" speed="10.44" pos="41.57" lane="4/2to3/2_0" slope="0.00"/>
        <vehicle id="5" x="359.97" y="601.65" angle="-90.00" type="DEFAULT_VEHTYPE" speed="9.55" pos="35.28" lane="2/3to1/3_0" slope="0.00"/>
        <vehicle id="6" x="601.65" y="628.47" angle="180.00" type="DEFAULT_VEHTYPE" speed="7.40" pos="23.72" lane="3/3to3/4_0" slope="0.00"/>
        <vehicle id="7" x="18.79" y="398.35" angle="90.00" type="DEFAULT_VEHTYPE" speed="6.26" pos="18.79" lane="0/2to1/2_0" slope="0.00"/>
        <vehicle id="8" x="201.65" y="215.97" angle="180.00" type="DEFAULT_VEHTYPE" speed="3.73" pos="11.22" lane="1/1to1/2_0" slope="0.00"/>
        <vehicle id="9" x="587.86" y="601.65" angle="-90.00" type="DEFAULT_VEHTYPE" speed="2.29" pos="7.39" lane="3/3to2/3_0" slope="0.00"/>
    </timestep>
    <timestep time="11.00">
        <vehicle id="0" x="513.15" y="398.35" angle="90.00" type="DEFAULT_VEHTYPE" speed="13.50" pos="108.40" lane="2/2to3/2_0" slope="0.00"/>
        <vehicle id="1" x="491.15" y="601.65" angle="-90.00" type="DEFAULT_VEHTYPE" speed="13.15" pos="104.10" lane="3/3to2/3_0" slope="0.00"/>
        <vehicle id="10" x="398.35" y="388.26" angle="0.00" type="DEFAULT_VEHTYPE" speed="1.89" pos="6.99" lane="2/2to2/1_0" slope="0.00"/>
        <vehicle id="11" x="398.35" y="190.15" angle="0.00" type="DEFAULT_VEHTYPE" speed="0.00" pos="5.10" lane="2/1to2/0_0" slope="0.00"/>
        <vehicle id="2" x="694.23" y="198.35" angle="90.00" type="DEFAULT_VEHTYPE" speed="13.68" pos="89.48" lane="3/1to4/1_0" slope="0.00"/>
        <vehicle id="3" x="598.35" y="324.89" angle="0.00" type="DEFAULT_VEHTYPE" speed="12.66" pos="70.36" lane="3/2to3/1_0" slope="0.00"/>
        <vehicle id="4" x="745.62" y="401.65" angle="-90.00" type="DEFAULT_VEHTYPE" speed="12.81" pos="54.38" lane="4/2to3/2_0" slope="0.00"/>
        <vehicle id="5" x="348.65" y="601.65" angle="-90.00" type="DEFAULT_VEHTYPE" speed="11.32" pos="46.60" lane="2/3to1/3_0" slope="0.00"/>
        <vehicle id="6" x="601.65" y="638.27" angle="180.00" type="DEFAULT_VEHTYPE" speed="9.80" pos="33.52" lane="3/3to3/4_0" slope="0.00"/>
        <vehicle id="7" x="27.61" y="398.35" angle="90.00" type="DEFAULT_VEHTYPE" speed="8.82" pos="27.61" lane="0/2to1/2_0" slope="0.00"/>
        <vehicle id="8" x="201.65" y="221.94" angle="180.00" type="DEFAULT_VEHTYPE" speed="5.97" pos="17.19" lane="1/1to1/2_0" slope="0.00"/>
        <vehicle id="9" x="583.62" y="601.65" angle="-90.00" type="DEFAULT_VEHTYPE" speed="4.25" pos="11.63" lane="3/3to2/3_0" slope="0.00"/>
    </timestep>
    <timestep time="12.00">
        <vehicle id="0" x="525.84" y="398.35" angle="90.00" type="DEFAULT_VEHTYPE" speed="12.69" pos="121.09" lane="2/2to3/2_0" slope="0.00"/>
        <vehicle id="1" x="477.49" y="601.65" angle="-90.00" type="DEFAULT_VEHTYPE" speed="13.67" pos="117.76" lane="3/3to2/3_0" slope="0.00"/>
        <vehicle id="10" x="398.35" y="383.83" angle="0.00" type="DEFAULT_VEHTYPE" speed="4.43" pos="11.42" lane="2/2to2/1_0" slope="0.00"/>
        <vehicle id="11" x="398.35" y="187.65" angle="0.00" type="DEFAULT_VEHTYPE" speed="2.50" pos="7.60" lane="2/1to2/0_0" slope="0.00"/>
        <vehicle id="12" x="609.85" y="398.35" angle="90.00" type="DEFAULT_VEHTYPE" speed="0.00" pos="5.10" lane="3/2to4/2_0" slope="0.00"/>
        <vehicle id="2" x="706.84" y="198.35" angle="90.00" type="DEFAULT_VEHTYPE" speed="12.61" pos="102.09" lane="3/1to4/1_0" slope="0.00"/>
        <vehicle id="3" x="598.35" y="311.40" angle="0.00" type="DEFAULT_VEHTYPE" speed="13.49" pos="83.85" lane="3/2to3/1_0" slope="0.00"/>
        <vehicle id="4" x="732.16" y="401.65" angle="-90.00" type="DEFAULT_VEHTYPE" speed="13.46" pos="67.84" lane="4/2to3/2_0" slope="0.00"/>
        <vehicle id="5" x="334.87" y="601.65" angle="-90.00" type="DEFAULT_VEHTYPE" speed="13.79" pos="60.38" lane="2/3to1/3_0" slope="0.00"/>
        <vehicle id="6" x="601.65" y="649.94" angle="180.00" type="DEFAULT_VEHTYPE" speed="11.66" pos="45.19" lane="3/3to3/4_0" slope="0.00"/>
        <vehicle id="7" x="38.76" y="398.35" angle="90.00" type="DEFAULT_VEHTYPE" speed="11.15" pos="38.76" lane="0/2to1/2_0" slope="0.00"/>
        <vehicle id="8" x="201.65" y="230.27" angle="180.00" type="DEFAULT_VEHTYPE" speed="8.34" pos="25.52" lane="1/1to1/2_0" slope="0.00"/>
        <vehicle id="9" x="576.86" y="601.65" angle="-90.00" type="DEFAULT_VEHTYPE" speed="6.76" pos="18.39" lane="3/3to2/3_0" slope="0.00"/>
    </timestep>
    <timestep time="13.00">
        <vehicle id="0" x="538.80" y="398.35" angle="90.00" type="DEFAULT_VEHTYPE" speed="12.96" pos="134.05" lane="2/2to3/2_0" slope="0.00"/>
        <vehicle id="1" x="463.96" y="601.65" angle="-90.00" type="DEFAULT_VEHTYPE" speed="13.52" pos="131.29" lane="3/3to2/3_0" slope="0.00"/>
        <vehicle id="10" x="398.35" y="377.56" angle="0.00" type="DEFAULT_VEHTYPE" speed="6.27" pos="17.69" lane="2/2to2/1_0" slope="0.00"/>
        <vehicle id="11" x="398.35" y="183.10" angle="0.00" type="DEFAULT_VEHTYPE" speed="4.55" pos="12.15" lane="2/1to2/0_0" slope="0.00"/>
        <vehicle id="12" x="611.98" y="398.35" angle="90.00" type="DEFAULT_VEHTYPE" speed="2.13" pos="7.23" lane="3/2to4/2_0" slope="0.00"/>
        <vehicle id="2" x="720.47" y="198.35" angle="90.00" type="DEFAULT_VEHTYPE" speed="13.62" pos="115.72" lane="3/1to4/1_0" slope="0.00"/>
        <vehicle id="3" x="598.35" y="298.38" angle="0.00" type="DEFAULT_VEHTYPE" speed="13.02" pos="96.87" lane="3/2to3/1_0" slope="0.00"/>
        <vehicle id="4" x="718.81" y="401.65" angle="-90.00" type="DEFAULT_VEHTYPE" speed="13.35" pos="81.19" lane="4/2to3/2_0" slope="0.00"/>
        <vehicle id="5" x="321.76" y="601.65" angle="-90.00" type="DEFAULT_VEHTYPE" speed="13.10" pos="73.49" lane="2/3to1/3_0" slope="0.00"/>
        <vehicle id="6" x="601.65" y="663.33" angle="180.00" type="DEFAULT_VEHTYPE" speed="13.39" pos="58.58" lane="3/3to3/4_0" slope="0.00"/>
        <vehicle id="7" x="51.84" y="398.35" angle="90.00" type="DEFAULT_VEHTYPE" speed="13.08" pos="51.84" lane="0/2to1/2_0" slope="0.00"/>
        <vehicle id="8" x="201.65" y="240.14" angle="180.00" type="DEFAULT_VEHTYPE" speed="9.86" pos="35.39" lane="1/1to1/2_0" slope="0.00"/>
        <vehicle id="9" x="567.96" y="601.65" angle="-90.00" type="DEFAULT_VEHTYPE" speed="8.90" pos="27.29" lane="3/3to2/3_0" slope="0.00"/>
    </timestep>
    <timestep time="14.00">
        <vehicle id="0" x="551.43" y="398.35" angle="90.00" type="DEFAULT_VEHTYPE" speed="12.63" pos="146.68" lane="2/2to3/2_0" slope="0.00"/>
        <vehicle id="1" x="450.46" y="601.65" angle="-90.00" type="DEFAULT_VEHTYPE" speed="13.51" pos="144.79" lane="3/3to2/3_0" slope="0.00"/>
        <vehicle id="10" x="398.35" y="369.29" angle="0.00" type="DEFAULT_VEHTYPE" speed="8.28" pos="25.96" lane="2/2to2/1_0" slope="0.00"/>
        <vehicle id="11" x="398.35" y="177.08" angle="0.00" type="DEFAULT_VEHTYPE" speed="6.02" pos="18.17" lane="2/1to2/0_0" slope="0.00"/>
        <vehicle id="12" x="615.95" y="398.35" angle="90.00" type="DEFAULT_VEHTYPE" speed="3.98" pos="11.20" lane="3/2to4/2_0" slope="0.00"/>
        <vehicle id="14" x="601.65" y="409.85" angle="180.00" type="DEFAULT_VEHTYPE" speed="0.00" pos="5.10" lane="3/2to3/3_0" slope="0.00"/>
        <vehicle id="2" x="734.23" y="198.35" angle="90.00" type="DEFAULT_VEHTYPE" speed="13.76" pos="129.48" lane="3/1to4/1_0" slope="0.00"/>
        <vehicle id="3" x="598.35" y="285.62" angle="0.00" type="DEFAULT_VEHTYPE" speed="12.76" pos="109.63" lane="3/2to3/1_0" slope="0.00"/>
        <vehicle id="4" x="705.73" y="401.65" angle="-90.00" type="DEFAULT_VEHTYPE" speed="13.09" pos="94.27" lane="4/2to3/2_0" slope="0.00"/>
        <vehicle id="5" x="309.07" y="601.65" angle="-90.00" type="DEFAULT_VEHTYPE" speed="12.70" pos="86.18" lane="2/3to1/3_0" slope="0.00"/>
        <vehicle id="6" x="601.65" y="676.59" angle="180.00" type="DEFAULT_VEHTYPE" speed="13.26" pos="71.84" lane="3/3to3/4_0" slope="0.00"/>
        <vehicle id="7" x="65.19" y="398.35" angle="90.00" type="DEFAULT_VEHTYPE" speed="13.35" pos="65.19" lane="0/2to1/2_0" slope="0.00"/>
        <vehicle id="8" x="201.65" y="251.68" angle="180.00" type="DEFAULT_VEHTYPE" speed="11.54" pos="46.93" lane="1/1to1/2_0" slope="0.00"/>
        <vehicle id="9" x="556.49" y="601.65" angle="-90.00" type="DEFAULT_VEHTYPE" speed="11.47" pos="38.76" lane="3/3to2/3_0" slope="0.00"/>
    </timestep>
    <timestep time="15.00">
        <vehicle id="0" x="564.07" y="398.35" angle="90.00" type="DEFAULT_VEHTYPE" speed="12.64" pos="159.32" lane="2/2to3/2_0" slope="0.00"/>
        <vehicle id="1" x="437.09" y="601.65" angle="-90.00" type="DEFAULT_VEHTYPE" speed="13.37" pos="158.16" lane="3/3to2/3_0" slope="0.00"/>
        <vehicle id="10" x="398.35" y="359.34" angle="0.00" type="DEFAULT_VEHTYPE" speed="9.95" pos="35.91" lane="2/2to2/1_0" slope="0.00"/>
        <vehicle id="11" x="398.35" y="168.63" angle="0.00" type="DEFAULT_VEHTYPE" speed="8.46" pos="26.62" lane="2/1to2/0_0" slope="0.00"/>
        <vehicle id="12" x="621.61" y="398.35" angle="90.00" type="DEFAULT_VEHTYPE" speed="5.65" pos="16.86" lane="3/2to4/2_0" slope="0.00"/>
        <vehicle id="13" x="609.85" y="398.35" angle="90.00" type="DEFAULT_VEHTYPE" speed="0.00" pos="5.10" lane="3/2to4/2_0" slope="0.00"/>
        <vehicle id="14" x="601.65" y="412.27" angle="180.00" type="DEFAULT_VEHTYPE" speed="2.42" pos="7.52" lane="3/2to3/3_0" slope="0.00"/>
        <vehicle id="2" x="747.69" y="198.35" angle="90.00" type="DEFAULT_VEHTYPE" speed="13.45" pos="142.94" lane="3/1to4/1_0" slope="0.00"/>
        <vehicle id="3" x="598.35" y="272.63" angle="0.00" type="DEFAULT_VEHTYPE" speed="12.99" pos="122.62" lane="3/2to3/1_0" slope="0.00"/>
        <vehicle id="4" x="691.96" y="401.65" angle="-90.00" type="DEFAULT_VEHTYPE" speed="13.77" pos="108.04" lane="4/2to3/2_0" slope="0.00"/>
        <vehicle id="5" x="295.77" y="601.65" angle="-90.00" type="DEFAULT_VEHTYPE" speed="13.29" pos="99.48" lane="2/3to1/3_0" slope="0.00"/>
        <vehicle id="6" x="601.65" y="689.63" angle="180.00" type="DEFAULT_VEHTYPE" speed="13.04" pos="84.88" lane="3/3to3/4_0" slope="0.00"/>
        <vehicle id="7" x="78.07" y="398.35" angle="90.00" type="DEFAULT_VEHTYPE" speed="12.88" pos="78.07" lane="0/2to1/2_0" slope="0.00"/>
        <vehicle id="8" x="201.65" y="265.21" angle="180.00" type="DEFAULT_VEHTYPE" speed="13.53" pos="60.46" lane="1/1to1/2_0" slope="0.00"/>
        <vehicle id="9" x="542.97" y="601.65" angle="-90.00" type="DEFAULT_VEHTYPE" speed="13.51" pos="52.28" lane="3/3to2/3_0" slope="0.00"/>
    </timestep>
    <timestep time="16.00">
        <vehicle id="0" x="576.82" y="398.35" angle="90.00" type="DEFAULT_VEHTYPE" speed="12.75" pos="172.07" lane="2/2to3/2_0" slope="0.00"/>
        <vehicle id="1" x="425.22" y="601.65" angle="-90.00" type="DEFAULT_VEHTYPE" speed="11.87" pos="170.03" lane="3/3to2/3_0" slope="0.00"/>
        <vehicle id="10" x="398.35" y="347.24" angle="0.00" type="DEFAULT_VEHTYPE" speed="12.10" pos="48.01" lane="2/2to2/1_0" slope="0.00"/>
        <vehicle id="11" x="398.35" y="158.43" angle="0.00" type="DEFAULT_VEHTYPE" speed="10.19" pos="36.82" lane="2/1to2/0_0" slope="0.00"/>
        <vehicle id="12" x="629.09" y="398.35" angle="90.00" type="DEFAULT_VEHTYPE" speed="7.49" pos="24.34" lane="3/2to4/2_0" slope="0.00"/>
        <vehicle id="13" x="611.89" y="398.35" angle="90.00" type="DEFAULT_VEHTYPE" speed="2.04" pos="7.14" lane="3/2to4/2_0" slope="0.00"/>
        <vehicle id="14" x="601.65" y="416.92" angle="180.00" type="DEFAULT_VEHTYPE" speed="4.66" pos="12.17" lane="3/2to3/3_0" slope="0.00"/>
        <vehicle id="2" x="761.53" y="198.35" angle="90.00" type="DEFAULT_VEHTYPE" speed="13.84" pos="156.78" lane="3/1to4/1_0" slope="0.00"/>
        <vehicle id="3" x="598.35" y="259.24" angle="0.00" type="DEFAULT_VEHTYPE" speed="13.39" pos="136.01" lane="3/2to3/1_0" slope="0.00"/>
        <vehicle id="4" x="678.94" y="401.65" angle="-90.00" type="DEFAULT_VEHTYPE" speed="13.02" pos="121.06" lane="4/2to3/2_0" slope="0.00"/>
        <vehicle id="5" x="283.15" y="601.65" angle="-90.00" type="DEFAULT_VEHTYPE" speed="12.63" pos="112.10" lane="2/3to1/3_0" slope="0.00"/>
        <vehicle id="6" x="601.65" y="702.43" angle="180.00" type="DEFAULT_VEHTYPE" speed="12.80" pos="97.68" lane="3/3to3/4_0" slope="0.00"/>
        <vehicle id="7" x="91.77" y="398.35" angle="90.00" type="DEFAULT_VEHTYPE" speed="13.70" pos="91.77" lane="0/2to1/2_0" slope="0.00"/>
        <vehicle id="8" x="201.65" y="277.93" angle="180.00" type="DEFAULT_VEHTYPE" speed="12.72" pos="73.18" lane="1/1to1/2_0" slope="0.00"/>
        <vehicle id="9" x="529.56" y="601.65" angle="-90.00" type="DEFAULT_VEHTYPE" speed="13.42" pos="65.69" lane="3/3to2/3_0" slope="0.00"/>
    </timestep>
    <timestep time="17.00">
        <vehicle id="0" x="590.23" y="398.35" angle="90.00" type="DEFAULT_VEHTYPE" speed="13.41" pos="185.48" lane="2/2to3/2_0" slope="0.00"/>
        <vehicle id="1" x="417.00" y="601.65" angle="-90.00" type="DEFAULT_VEHTYPE" speed="8.22" pos="178.25" lane="3/3to2/3_0" slope="0.00"/>
        <vehicle id="10" x="398.35" y="333.36" angle="0.00" type="DEFAULT_VEHTYPE" speed="13.88" pos="61.89" lane="2/2to2/1_0" slope="0.00"/>
        <vehicle id="11" x="398.35" y="146.91" angle="0.00" type="DEFAULT_VEHTYPE" speed="11.52" pos="48.34" lane="2/1to2/0_0" slope="0.00"/>
        <vehicle id="12" x="638.55" y="398.35" angle="90.00" type="DEFAULT_VEHTYPE" speed="9.46" pos="33.80" lane="3/2to4/2_0" slope="0.00"/>
        <vehicle id="13" x="615.38" y="398.35" angle="90.00" type="DEFAULT_VEHTYPE" speed="3.49" pos="10.63" lane="3/2to4/2_0" slope="0.00"/>
        <vehicle id="14" x="601.65" y="423.00" angle="180.00" type="DEFAULT_VEHTYPE" speed="6.08" pos="18.25" lane="3/2to3/3_0" slope="0.00"/>
        <vehicle id="2" x="774.69" y="198.35" angle="90.00" type="DEFAULT_VEHTYPE" speed="13.15" pos="169.94" lane="3/1to4/1_0" slope="0.00"/>
        <vehicle id="3" x="598.35" y="245.47" angle="0.00" type="DEFAULT_VEHTYPE" speed="13.77" pos="149.78" lane="3/2to3/1_0" slope="0.00"/>
        <vehicle id="4" x="666.15" y="401.65" angle="-90.00" type="DEFAULT_VEHTYPE" speed="12.79" pos="133.85" lane="4/2to3/2_0" slope="0.00"/>
        <vehicle id="5" x="270.08" y="601.65" angle="-90.00" type="DEFAULT_VEHTYPE" speed="13.07" pos="125.17" lane="2/3to1/3_0" slope="0.00"/>
        <vehicle id="6" x="601.65" y="715.26" angle="180.00" type="DEFAULT_VEHTYPE" speed="12.83" pos="110.51" lane="3/3to3/4_0" slope="0.00"/>
        <vehicle id="7" x="104.45" y="398.35" angle="90.00" type="DEFAULT_VEHTYPE" speed="12.67" pos="104.45" lane="0/2to1/2_0" slope="0.00"/>
        <vehicle id="8" x="201.65" y="291.12" angle="180.00" type="DEFAULT_VEHTYPE" speed="13.19" pos="86.37" lane="1/1to1/2_0" slope="0.00"/>
        <vehicle id="9" x="516.54" y="601.65" angle="-90.00" type="DEFAULT_VEHTYPE" speed="13.01" pos="78.71" lane="3/3to2/3_0" slope="0.00"/>
    </timestep>
    <timestep time="18.00">
        <vehicle id="1" x="412.15" y="601.65" angle="-90.00" type="DEFAULT_VEHTYPE" speed="4.86" pos="183.10" lane="3/3to2/3_0" slope="0.00"/>
        <vehicle id="10" x="398.35" y="320.64" angle="0.00" type="DEFAULT_VEHTYPE" speed="12.72" pos="74.61" lane="2/2to2/1_0" slope="0.00"/>
        <vehicle id="11" x="398.35" y="133.55" angle="0.00" type="DEFAULT_VEHTYPE" speed="13.36" pos="61.70" lane="2/1to2/0_0" slope="0.00"/>
        <vehicle id="12" x="649.50" y="398.35" angle="90.00" type="DEFAULT_VEHTYPE" speed="10.95" pos="44.75" lane="3/2to4/2_0" slope="0.00"/>
        <vehicle id="13" x="621.31" y="398.35" angle="90.00" type="DEFAULT_VEHTYPE" speed="5.94" pos="16.56" lane="3/2to4/2_0" slope="0.00"/>
        <vehicle id="14" x="601.65" y="430.62" angle="180.00" type="DEFAULT_VEHTYPE" speed="7.62" pos="25.87" lane="3/2to3/3_0" slope="0.00"/>
        <vehicle id="2" x="787.97" y="198.35" angle="90.00" type="DEFAULT_VEHTYPE" speed="13.29" pos="183.22" lane="3/1to4/1_0" slope="0.00"/>
        <vehicle id="3" x="598.35" y="232.01" angle="0.00" type="DEFAULT_VEHTYPE" speed="13.46" pos="163.24" lane="3/2to3/1_0" slope="0.00"/>
        <vehicle id="4" x="652.25" y="401.65" angle="-90.00" type="DEFAULT_VEHTYPE" speed="13.90" pos="147.75" lane="4/2to3/2_0" slope="0.00"/>
        <vehicle id="5" x="257.03" y="601.65" angle="-90.00" type="DEFAULT_VEHTYPE" speed="13.04" pos="138.22" lane="2/3to1/3_0" slope="0.00"/>
        <vehicle id="6" x="601.65" y="727.97" angle="180.00" type="DEFAULT_VEHTYPE" speed="12.71" pos="123.22" lane="3/3to3/4_0" slope="0.00"/>
        <vehicle id="7" x="118.33" y="398.35" angle="90.00" type="DEFAULT_VEHTYPE" speed="13.88" pos="118.33" lane="0/2to1/2_0" slope="0.00"/>
        <vehicle id="8" x="201.65" y="304.39" angle="180.00" type="DEFAULT_VEHTYPE" speed="13.27" pos="99.64" lane="1/1to1/2_0" slope="0.00"/>
        <vehicle id="9" x="503.09" y="601.65" angle="-90.00" type="DEFAULT_VEHTYPE" speed="13.45" pos="92.16" lane="3/3to2/3_0" slope="0.00"/>
    </timestep>
    <timestep time="19.00">
        <vehicle id="1" x="409.92" y="601.65" angle="-90.00" type="DEFAULT_VEHTYPE" speed="2.22" pos="185.33" lane="3/3to2/3_0" slope="0.00"/>
        <vehicle id="10" x="398.35" y="306.94" angle="0.00" type="DEFAULT_VEHTYPE" speed="13.70" pos="88.31" lane="2/2to2/1_0" slope="0.00"/>
        <vehicle id="11" x="398.35" y="120.23" angle="0.00" type="DEFAULT_VEHTYPE" speed="13.32" pos="75.02" lane="2/1to2/0_0" slope="0.00"/>
        <vehicle id="12" x="662.12" y="398.35" angle="90.00" type="DEFAULT_VEHTYPE" speed="12.61" pos="57.37" lane="3/2to4/2_0" slope="0.00"/>
        <vehicle id="13" x="629.43" y="398.35" angle="90.00" type="DEFAULT_VEHTYPE" speed="8.12" pos="24.68" lane="3/2to4/2_0" slope="0.00"/>
        <vehicle id="14" x="601.65" y="440.26" angle="180.00" type="DEFAULT_VEHTYPE" speed="9.64" pos="35.51" lane="3/2to3/3_0" slope="0.00"/>
        <vehicle id="2" x="801.04" y="199.03" angle="98.13" type="DEFAULT_VEHTYPE" speed="13.27" pos="1.24" lane=":4/1_0_0" slope="0.00"/>
        <vehicle id="3" x="598.35" y="219.33" angle="0.00" type="DEFAULT_VEHTYPE" speed="12.68" pos="175.92" lane="3/2to3/1_0" slope="0.00"/>
        <vehicle id="4" x="639.37" y="401.65" angle="-90.00" type="DEFAULT_VEHTYPE" speed="12.88" pos="160.63" lane="4/2to3/2_0" slope="0.00"/>
        <vehicle id="5" x="243.74" y="601.65" angle="-90.00" type="DEFAULT_VEHTYPE" speed="13.30" pos="151.51" lane="2/3to1/3_0" slope="0.00"/>
        <vehicle id="6" x="601.65" y="740.77" angle="180.00" type="DEFAULT_VEHTYPE" speed="12.80" pos="136.02" lane="3/3to3/4_0" slope="0.00"/>
        <vehicle id="7" x="131.80" y="398.35" angle="90.00" type="DEFAULT_VEHTYPE" speed="13.47" pos="131.80" lane="0/2to1/2_0" slope="0.00"/>
        <vehicle id="8" x="201.65" y="318.02" angle="180.00" type="DEFAULT_VEHTYPE" speed="13.63" pos="113.27" lane="1/1to1/2_0" slope="0.00"/>
        <vehicle id="9" x="489.70" y="601.65" angle="-90.00" type="DEFAULT_VEHTYPE" speed="13.39" pos="105.55" lane="3/3to2/3_0" slope="0.00"/>
    </timestep>
    <timestep time="20.00">
        <vehicle id="1" x="406.14" y="601.65" angle="-90.00" type="DEFAULT_VEHTYPE" speed="3.78" pos="189.11" lane="3/3to2/3_0" slope="0.00"/>
        <vehicle id="10" x="398.35" y="293.33" angle="0.00" type="DEFAULT_VEHTYPE" speed="13.61" pos="101.92" lane="2/2to2/1_0" slope="0.00"/>
        <vehicle id="11" x="398.35" y="106.63" angle="0.00" type="DEFAULT_VEHTYPE" speed="13.60" pos="88.62" lane="2/1to2/0_0" slope="0.00"/>
        <vehicle id="12" x="674.82" y="398.35" angle="90.00" type="DEFAULT_VEHTYPE" speed="12.70" pos="70.07" lane="3/2to4/2_0" slope="0.00"/>
        <vehicle id="13" x="639.90" y="398.35" angle="90.00" type="DEFAULT_VEHTYPE" speed="10.46" pos="35.15" lane="3/2to4/2_0" slope="0.00"/>
        <vehicle id="14" x="601.65" y="452.08" angle="180.00" type="DEFAULT_VEHTYPE" speed="11.82" pos="47.33" lane="3/2to3/3_0" slope="0.00"/>
        <vehicle id="2" x="790.00" y="201.65" angle="-90.00" type="DEFAULT_VEHTYPE" speed="13.57" pos="10.00" lane="4/1to3/1_0" slope="0.00"/>
        <vehicle id="3" x="598.35" y="205.64" angle="0.00" type="DEFAULT_VEHTYPE" speed="13.70" pos="189.61" lane="3/2to3/1_0" slope="0.00"/>