<?xml version="1.0" encoding="UTF-8"?>

<!-- generated on Tue Nov  5 10:08:44 2013 by SUMO sumo Version 0.18.0
<?xml version="1.0" encoding="UTF-8"?>

<configuration xmlns:xsi="http://www.w3.org/2001/XMLSchema-instance" xsi:noNamespaceSchemaLocation="http://sumo.sf.net/xsd/sumoConfiguration.xsd">

    <input>
        <net-file value="test.net.xml"/>
        <route-files value="test.rou.xml"/>
        <additional-files value="test.rerouter.xml"/>
    </input>

    <output>
        <fcd-output value="test-15.fcd.xml"/>
        <save-state.prefix value="state"/>
    </output>

    <time>
        <begin value="0"/>
        <end value="800"/>
    </time>

    <gui_only>
        <gui-settings-file value="test.settings.xml"/>
    </gui_only>

</configuration>
-->

<fcd-export>
    <timestep time="0.00">
        <vehicle id="0" x="409.85" y="598.35" angle="90.00" type="DEFAULT_VEHTYPE" speed="0.00" pos="5.10" lane="2/3to3/3_0" slope="0.00"/>
    </timestep>
    <timestep time="1.00">
        <vehicle id="0" x="411.29" y="598.35" angle="90.00" type="DEFAULT_VEHTYPE" speed="1.44" pos="6.54" lane="2/3to3/3_0" slope="0.00"/>
        <vehicle id="1" x="598.35" y="390.15" angle="0.00" type="DEFAULT_VEHTYPE" speed="0.00" pos="5.10" lane="3/2to3/1_0" slope="0.00"/>
    </timestep>
    <timestep time="2.00">
        <vehicle id="0" x="414.41" y="598.35" angle="90.00" type="DEFAULT_VEHTYPE" speed="3.12" pos="9.66" lane="2/3to3/3_0" slope="0.00"/>
        <vehicle id="1" x="598.35" y="387.61" angle="0.00" type="DEFAULT_VEHTYPE" speed="2.54" pos="7.64" lane="3/2to3/1_0" slope="0.00"/>
        <vehicle id="2" x="401.65" y="209.85" angle="180.00" type="DEFAULT_VEHTYPE" speed="0.00" pos="5.10" lane="2/1to2/2_0" slope="0.00"/>
    </timestep>
    <timestep time="3.00">
        <vehicle id="0" x="419.48" y="598.35" angle="90.00" type="DEFAULT_VEHTYPE" speed="5.08" pos="14.73" lane="2/3to3/3_0" slope="0.00"/>
        <vehicle id="1" x="598.35" y="383.24" angle="0.00" type="DEFAULT_VEHTYPE" speed="4.37" pos="12.01" lane="3/2to3/1_0" slope="0.00"/>
        <vehicle id="2" x="401.65" y="212.39" angle="180.00" type="DEFAULT_VEHTYPE" speed="2.54" pos="7.64" lane="2/1to2/2_0" slope="0.00"/>
        <vehicle id="3" x="598.35" y="190.15" angle="0.00" type="DEFAULT_VEHTYPE" speed="0.00" pos="5.10" lane="3/1to3/0_0" slope="0.00"/>
    </timestep>
    <timestep time="4.00">
        <vehicle id="0" x="426.19" y="598.35" angle="90.00" type="DEFAULT_VEHTYPE" speed="6.71" pos="21.44" lane="2/3to3/3_0" slope="0.00"/>
        <vehicle id="1" x="598.35" y="376.58" angle="0.00" type="DEFAULT_VEHTYPE" speed="6.65" pos="18.67" lane="3/2to3/1_0" slope="0.00"/>
        <vehicle id="2" x="401.65" y="216.83" angle="180.00" type="DEFAULT_VEHTYPE" speed="4.43" pos="12.08" lane="2/1to2/2_0" slope="0.00"/>
        <vehicle id="3" x="598.35" y="188.52" angle="0.00" type="DEFAULT_VEHTYPE" speed="1.63" pos="6.73" lane="3/1to3/0_0" slope="0.00"/>
        <vehicle id="4" x="190.15" y="201.65" angle="-90.00" type="DEFAULT_VEHTYPE" speed="0.00" pos="5.10" lane="1/1to0/1_0" slope="0.00"/>
    </timestep>
    <timestep time="5.00">
        <vehicle id="0" x="435.50" y="598.35" angle="90.00" type="DEFAULT_VEHTYPE" speed="9.30" pos="30.75" lane="2/3to3/3_0" slope="0.00"/>
        <vehicle id="1" x="598.35" y="368.21" angle="0.00" type="DEFAULT_VEHTYPE" speed="8.38" pos="27.04" lane="3/2to3/1_0" slope="0.00"/>
        <vehicle id="2" x="401.65" y="223.26" angle="180.00" type="DEFAULT_VEHTYPE" speed="6.43" pos="18.51" lane="2/1to2/2_0" slope="0.00"/>
        <vehicle id="3" x="598.35" y="184.88" angle="0.00" type="DEFAULT_VEHTYPE" speed="3.64" pos="10.37" lane="3/1to3/0_0" slope="0.00"/>
        <vehicle id="4" x="188.29" y="201.65" angle="-90.00" type="DEFAULT_VEHTYPE" speed="1.86" pos="6.96" lane="1/1to0/1_0" slope="0.00"/>
        <vehicle id="5" x="5.10" y="198.35" angle="90.00" type="DEFAULT_VEHTYPE" speed="0.00" pos="5.10" lane="0/1to1/1_0" slope="0.00"/>
    </timestep>
    <timestep time="6.00">
        <vehicle id="0" x="447.06" y="598.35" angle="90.00" type="DEFAULT_VEHTYPE" speed="11.56" pos="42.31" lane="2/3to3/3_0" slope="0.00"/>
        <vehicle id="1" x="598.35" y="357.31" angle="0.00" type="DEFAULT_VEHTYPE" speed="10.90" pos="37.94" lane="3/2to3/1_0" slope="0.00"/>
        <vehicle id="2" x="401.65" y="231.15" angle="180.00" type="DEFAULT_VEHTYPE" speed="7.89" pos="26.40" lane="2/1to2/2_0" slope="0.00"/>
        <vehicle id="3" x="598.35" y="179.05" angle="0.00" type="DEFAULT_VEHTYPE" speed="5.83" pos="16.20" lane="3/1to3/0_0" slope="0.00"/>
        <vehicle id="4" x="184.71" y="201.65" angle="-90.00" type="DEFAULT_VEHTYPE" speed="3.58" pos="10.54" lane="1/1to0/1_0" slope="0.00"/>
        <vehicle id="5" x="7.64" y="198.35" angle="90.00" type="DEFAULT_VEHTYPE" speed="2.54" pos="7.64" lane="0/1to1/1_0" slope="0.00"/>
        <vehicle id="6" x="190.15" y="601.65" angle="-90.00" type="DEFAULT_VEHTYPE" speed="0.00" pos="5.10" lane="1/3to0/3_0" slope="0.00"/>
    </timestep>
    <timestep time="7.00">
        <vehicle id="0" x="460.29" y="598.35" angle="90.00" type="DEFAULT_VEHTYPE" speed="13.23" pos="55.54" lane="2/3to3/3_0" slope="0.00"/>
        <vehicle id="1" x="598.35" y="344.21" angle="0.00" type="DEFAULT_VEHTYPE" speed="13.10" pos="51.04" lane="3/2to3/1_0" slope="0.00"/>
        <vehicle id="2" x="401.65" y="240.81" angle="180.00" type="DEFAULT_VEHTYPE" speed="9.67" pos="36.06" lane="2/1to2/2_0" slope="0.00"/>
        <vehicle id="3" x="598.35" y="171.85" angle="0.00" type="DEFAULT_VEHTYPE" speed="7.20" pos="23.40" lane="3/1to3/0_0" slope="0.00"/>
        <vehicle id="4" x="179.61" y="201.65" angle="-90.00" type="DEFAULT_VEHTYPE" speed="5.10" pos="15.64" lane="1/1to0/1_0" slope="0.00"/>
        <vehicle id="5" x="11.63" y="198.35" angle="90.00" type="DEFAULT_VEHTYPE" speed="3.99" pos="11.63" lane="0/1to1/1_0" slope="0.00"/>
        <vehicle id="6" x="188.07" y="601.65" angle="-90.00" type="DEFAULT_VEHTYPE" speed="2.08" pos="7.18" lane="1/3to0/3_0" slope="0.00"/>
        <vehicle id="7" x="409.85" y="198.35" angle="90.00" type="DEFAULT_VEHTYPE" speed="0.00" pos="5.10" lane="2/1to3/1_0" slope="0.00"/>
    </timestep>
    <timestep time="8.00">
        <vehicle id="0" x="474.15" y="598.35" angle="90.00" type="DEFAULT_VEHTYPE" speed="13.86" pos="69.40" lane="2/3to3/3_0" slope="0.00"/>
        <vehicle id="1" x="598.35" y="330.70" angle="0.00" type="DEFAULT_VEHTYPE" speed="13.51" pos="64.55" lane="3/2to3/1_0" slope="0.00"/>
        <vehicle id="2" x="401.65" y="252.09" angle="180.00" type="DEFAULT_VEHTYPE" speed="11.27" pos="47.34" lane="2/1to2/2_0" slope="0.00"/>
        <vehicle id="3" x="598.35" y="162.25" angle="0.00" type="DEFAULT_VEHTYPE" speed="9.60" pos="33.00" lane="3/1to3/0_0" slope="0.00"/>
        <vehicle id="4" x="173.15" y="201.65" angle="-90.00" type="DEFAULT_VEHTYPE" speed="6.46" pos="22.10" lane="1/1to0/1_0" slope="0.00"/>
        <vehicle id="5" x="18.17" y="198.35" angle="90.00" type="DEFAULT_VEHTYPE" speed="6.55" pos="18.17" lane="0/1to1/1_0" slope="0.00"/>
        <vehicle id="6" x="184.27" y="601.65" angle="-90.00" type="DEFAULT_VEHTYPE" speed="3.79" pos="10.98" lane="1/3to0/3_0" slope="0.00"/>
        <vehicle id="7" x="412.02" y="198.35" angle="90.00" type="DEFAULT_VEHTYPE" speed="2.17" pos="7.27" lane="2/1to3/1_0" slope="0.00"/>
        <vehicle id="8" x="598.35" y="190.15" angle="0.00" type="DEFAULT_VEHTYPE" speed="0.00" pos="5.10" lane="3/1to3/0_0" slope="0.00"/>
    </timestep>
    <timestep time="9.00">
        <vehicle id="0" x="487.88" y="598.35" angle="90.00" type="DEFAULT_VEHTYPE" speed="13.73" pos="83.13" lane="2/3to3/3_0" slope="0.00"/>
        <vehicle id="1" x="598.35" y="316.96" angle="0.00" type="DEFAULT_VEHTYPE" speed="13.74" pos="78.29" lane="3/2to3/1_0" slope="0.00"/>
        <vehicle id="2" x="401.65" y="265.42" angle="180.00" type="DEFAULT_VEHTYPE" speed="13.34" pos="60.67" lane="2/1to2/2_0" slope="0.00"/>
        <vehicle id="3" x="598.35" y="150.39" angle="0.00" type="DEFAULT_VEHTYPE" speed="11.85" pos="44.86" lane="3/1to3/0_0" slope="0.00"/>
        <vehicle id="4" x="164.38" y="201.65" angle="-90.00" type="DEFAULT_VEHTYPE" speed="8.77" pos="30.87" lane="1/1to0/1_0" slope="0.00"/>
        <vehicle id="5" x="27.10" y="198.35" angle="90.00" type="DEFAULT_VEHTYPE" speed="8.93" pos="27.10" lane="0/1to1/1_0" slope="0.00"/>
        <vehicle id="6" x="178.62" y="601.65" angle="-90.00" type="DEFAULT_VEHTYPE" speed="5.65" pos="16.63" lane="1/3to0/3_0" slope="0.00"/>
        <vehicle id="7" x="416.47" y="198.35" angle="90.00" type="DEFAULT_VEHTYPE" speed="4.46" pos="11.72" lane="2/1to3/1_0" slope="0.00"/>
        <vehicle id="8" x="598.35" y="188.80" angle="0.00" type="DEFAULT_VEHTYPE" speed="1.35" pos="6.45" lane="3/1to3/0_0" slope="0.00"/>
        <vehicle id="9" x="590.15" y="201.65" angle="-90.00" type="DEFAULT_VEHTYPE" speed="0.00" pos="5.10" lane="3/1to2/1_0" slope="0.00"/>
    </timestep>
    <timestep time="10.00">
        <vehicle id="0" x="500.72" y="598.35" angle="90.00" type="DEFAULT_VEHTYPE" speed="12.84" pos="95.97" lane="2/3to3/3_0" slope="0.00"/>
        <vehicle id="1" x="598.35" y="303.18" angle="0.00" type="DEFAULT_VEHTYPE" speed="13.78" pos="92.07" lane="3/2to3/1_0" slope="0.00"/>
        <vehicle id="2" x="401.65" y="278.46" angle="180.00" type="DEFAULT_VEHTYPE" speed="13.03" pos="73.71" lane="2/1to2/2_0" slope="0.00"/>
        <vehicle id="3" x="598.35" y="137.27" angle="0.00" type="DEFAULT_VEHTYPE" speed="13.12" pos="57.98" lane="3/1to3/0_0" slope="0.00"/>
        <vehicle id="4" x="153.91" y="201.65" angle="-90.00" type="DEFAULT_VEHTYPE" speed="10.47" pos="41.34" lane="1/1to0/1_0" slope="0.00"/>
        <vehicle id="5" x="37.42" y="198.35" angle="90.00" type="DEFAULT_VEHTYPE" speed="10.31" pos="37.42" lane="0/1to1/1_0" slope="0.00"/>
        <vehicle id="6" x="171.62" y="601.65" angle="-90.00" type="DEFAULT_VEHTYPE" speed="7.00" pos="23.63" lane="1/3to0/3_0" slope="0.00"/>
        <vehicle id="7" x="423.13" y="198.35" angle="90.00" type="DEFAULT_VEHTYPE" speed="6.66" pos="18.38" lane="2/1to3/1_0" slope="0.00"/>
        <vehicle id="8" x="598.35" y="185.79" angle="0.00" type="DEFAULT_VEHTYPE" speed="3.02" pos="9.46" lane="3/1to3/0_0" slope="0.00"/>
        <vehicle id="9" x="588.19" y="201.65" angle="-90.00" type="DEFAULT_VEHTYPE" speed="1.96" pos="7.06" lane="3/1to2/1_0" slope="0.00"/>
    </timestep>
    <timestep time="11.00">
        <vehicle id="0" x="513.87" y="598.35" angle="90.00" type="DEFAULT_VEHTYPE" speed="13.15" pos="109.12" lane="2/3to3/3_0" slope="0.00"/>
        <vehicle id="1" x="598.35" y="289.50" angle="0.00" type="DEFAULT_VEHTYPE" speed="13.68" pos="105.75" lane="3/2to3/1_0" slope="0.00"/>
        <vehicle id="11" x="198.35" y="590.15" angle="0.00" type="DEFAULT_VEHTYPE" speed="0.00" pos="5.10" lane="1/3to1/2_0" slope="0.00"/>
        <vehicle id="2" x="401.65" y="291.11" angle="180.00" type="DEFAULT_VEHTYPE" speed="12.66" pos="86.36" lane="2/1to2/2_0" slope="0.00"/>
        <vehicle id="3" x="598.35" y="124.20" angle="0.00" type="DEFAULT_VEHTYPE" speed="13.07" pos="71.05" lane="3/1to3/0_0" slope="0.00"/>
        <vehicle id="4" x="141.03" y="201.65" angle="-90.00" type="DEFAULT_VEHTYPE" speed="12.87" pos="54.22" lane="1/1to0/1_0" slope="0.00"/>
        <vehicle id="5" x="50.29" y="198.35" angle="90.00" type="DEFAULT_VEHTYPE" speed="12.88" pos="50.29" lane="0/1to1/1_0" slope="0.00"/>
        <vehicle id="6" x="162.38" y="601.65" angle="-90.00" type="DEFAULT_VEHTYPE" speed="9.24" pos="32.87" lane="1/3to0/3_0" slope="0.00"/>
        <vehicle id="7" x="431.67" y="198.35" angle="90.00" type="DEFAULT_VEHTYPE" speed="8.54" pos="26.92" lane="2/1to3/1_0" slope="0.00"/>
        <vehicle id="8" x="598.35" y="180.41" angle="0.00" type="DEFAULT_VEHTYPE" speed="5.38" pos="14.84" lane="3/1to3/0_0" slope="0.00"/>
        <vehicle id="9" x="584.84" y="201.65" angle="-90.00" type="DEFAULT_VEHTYPE" speed="3.35" pos="10.41" lane="3/1to2/1_0" slope="0.00"/>
    </timestep>
    <timestep time="12.00">
        <vehicle id="0" x="527.68" y="598.35" angle="90.00" type="DEFAULT_VEHTYPE" speed="13.81" pos="122.93" lane="2/3to3/3_0" slope="0.00"/>
        <vehicle id="1" x="598.35" y="275.83" angle="0.00" type="DEFAULT_VEHTYPE" speed="13.67" pos="119.42" lane="3/2to3/1_0" slope="0.00"/>
        <vehicle id="10" x="590.15" y="201.65" angle="-90.00" type="DEFAULT_VEHTYPE" speed="0.00" pos="5.10" lane="3/1to2/1_0" slope="0.00"/>
        <vehicle id="11" x="198.35" y="587.65" angle="0.00" type="DEFAULT_VEHTYPE" speed="2.50" pos="7.60" lane="1/3to1/2_0" slope="0.00"/>
        <vehicle id="12" x="198.35" y="390.15" angle="0.00" type="DEFAULT_VEHTYPE" speed="0.00" pos="5.10" lane="1/2to1/1_0" slope="0.00"/>
        <vehicle id="2" x="401.65" y="303.72" angle="180.00" type="DEFAULT_VEHTYPE" speed="12.61" pos="98.97" lane="2/1to2/2_0" slope="0.00"/>
        <vehicle id="3" x="598.35" y="110.74" angle="0.00" type="DEFAULT_VEHTYPE" speed="13.46" pos="84.51" lane="3/1to3/0_0" slope="0.00"/>
        <vehicle id="4" x="127.25" y="201.65" angle="-90.00" type="DEFAULT_VEHTYPE" speed="13.79" pos="68.00" lane="1/1to0/1_0" slope="0.00"/>
        <vehicle id="5" x="63.46" y="198.35" angle="90.00" type="DEFAULT_VEHTYPE" speed="13.16" pos="63.46" lane="0/1to1/1_0" slope="0.00"/>
        <vehicle id="6" x="150.81" y="601.65" angle="-90.00" type="DEFAULT_VEHTYPE" speed="11.57" pos="44.44" lane="1/3to0/3_0" slope="0.00"/>
        <vehicle id="7" x="442.58" y="198.35" angle="90.00" type="DEFAULT_VEHTYPE" speed="10.91" pos="37.83" lane="2/1to3/1_0" slope="0.00"/>
        <vehicle id="8" x="598.35" y="172.84" angle="0.00" type="DEFAULT_VEHTYPE" speed="7.57" pos="22.41" lane="3/1to3/0_0" slope="0.00"/>
        <vehicle id="9" x="578.95" y="201.65" angle="-90.00" type="DEFAULT_VEHTYPE" speed="5.89" pos="16.30" lane="3/1to2/1_0" slope="0.00"/>
    </timestep>
    <timestep time="13.00">
        <vehicle id="0" x="540.64" y="598.35" angle="90.00" type="DEFAULT_VEHTYPE" speed="12.96" pos="135.89" lane="2/3to3/3_0" slope="0.00"/>
        <vehicle id="1" x="598.35" y="262.39" angle="0.00" type="DEFAULT_VEHTYPE" speed="13.44" pos="132.86" lane="3/2to3/1_0" slope="0.00"/>
        <vehicle id="10" x="588.62" y="201.65" angle="-90.00" type="DEFAULT_VEHTYPE" speed="1.53" pos="6.63" lane="3/1to2/1_0" slope="0.00"/>
        <vehicle id="11" x="198.35" y="583.10" angle="0.00" type="DEFAULT_VEHTYPE" speed="4.55" pos="12.15" lane="1/3to1/2_0" slope="0.00"/>
        <vehicle id="12" x="198.35" y="388.02" angle="0.00" type="DEFAULT_VEHTYPE" speed="2.13" pos="7.23" lane="1/2to1/1_0" slope="0.00"/>
        <vehicle id="13" x="794.90" y="401.65" angle="-90.00" type="DEFAULT_VEHTYPE" speed="0.00" pos="5.10" lane="4/2to3/2_0" slope="0.00"/>
        <vehicle id="2" x="401.65" y="317.25" angle="180.00" type="DEFAULT_VEHTYPE" speed="13.52" pos="112.50" lane="2/1to2/2_0" slope="0.00"/>
        <vehicle id="3" x="598.35" y="97.73" angle="0.00" type="DEFAULT_VEHTYPE" speed="13.02" pos="97.52" lane="3/1to3/0_0" slope="0.00"/>
        <vehicle id="4" x="113.90" y="201.65" angle="-90.00" type="DEFAULT_VEHTYPE" speed="13.35" pos="81.35" lane="1/1to0/1_0" slope="0.00"/>
        <vehicle id="5" x="76.56" y="198.35" angle="90.00" type="DEFAULT_VEHTYPE" speed="13.10" pos="76.56" lane="0/1to1/1_0" slope="0.00"/>
        <vehicle id="6" x="137.41" y="601.65" angle="-90.00" type="DEFAULT_VEHTYPE" speed="13.39" pos="57.84" lane="1/3to0/3_0" slope="0.00"/>
        <vehicle id="7" x="455.43" y="198.35" angle="90.00" type="DEFAULT_VEHTYPE" speed="12.84" pos="50.68" lane="2/1to3/1_0" slope="0.00"/>
        <vehicle id="8" x="598.35" y="162.95" angle="0.00" type="DEFAULT_VEHTYPE" speed="9.89" pos="32.30" lane="3/1to3/0_0" slope="0.00"/>
        <vehicle id="9" x="571.21" y="201.65" angle="-90.00" type="DEFAULT_VEHTYPE" speed="7.73" pos="24.04" lane="3/1to2/1_0" slope="0.00"/>
    </timestep>
    <timestep time="14.00">
        <vehicle id="0" x="553.27" y="598.35" angle="90.00" type="DEFAULT_VEHTYPE" speed="12.63" pos="148.52" lane="2/3to3/3_0" slope="0.00"/>
        <vehicle id="1" x="598.35" y="248.52" angle="0.00" type="DEFAULT_VEHTYPE" speed="13.87" pos="146.73" lane="3/2to3/1_0" slope="0.00"/>
        <vehicle id="10" x="585.42" y="201.65" angle="-90.00" type="DEFAULT_VEHTYPE" speed="3.20" pos="9.83" lane="3/1to2/1_0" slope="0.00"/>
        <vehicle id="11" x="198.35" y="577.08" angle="0.00" type="DEFAULT_VEHTYPE" speed="6.02" pos="18.17" lane="1/3to1/2_0" slope="0.00"/>
        <vehicle id="12" x="198.35" y="384.05" angle="0.00" type="DEFAULT_VEHTYPE" speed="3.98" pos="11.20" lane="1/2to1/1_0" slope="0.00"/>
        <vehicle id="13" x="793.56" y="401.65" angle="-90.00" type="DEFAULT_VEHTYPE" speed="1.34" pos="6.44" lane="4/2to3/2_0" slope="0.00"/>
        <vehicle id="14" x="5.10" y="598.35" angle="90.00" type="DEFAULT_VEHTYPE" speed="0.00" pos="5.10" lane="0/3to1/3_0" slope="0.00"/>
        <vehicle id="2" x="401.65" y="330.75" angle="180.00" type="DEFAULT_VEHTYPE" speed="13.51" pos="126.00" lane="2/1to2/2_0" slope="0.00"/>
        <vehicle id="3" x="598.35" y="84.96" angle="0.00" type="DEFAULT_VEHTYPE" speed="12.76" pos="110.29" lane="3/1to3/0_0" slope="0.00"/>
        <vehicle id="4" x="100.81" y="201.65" angle="-90.00" type="DEFAULT_VEHTYPE" speed="13.09" pos="94.44" lane="1/1to0/1_0" slope="0.00"/>
        <vehicle id="5" x="89.25" y="198.35" angle="90.00" type="DEFAULT_VEHTYPE" speed="12.70" pos="89.25" lane="0/1to1/1_0" slope="0.00"/>
        <vehicle id="6" x="124.15" y="601.65" angle="-90.00" type="DEFAULT_VEHTYPE" speed="13.26" pos="71.10" lane="1/3to0/3_0" slope="0.00"/>
        <vehicle id="7" x="468.77" y="198.35" angle="90.00" type="DEFAULT_VEHTYPE" speed="13.35" pos="64.02" lane="2/1to3/1_0" slope="0.00"/>
        <vehicle id="8" x="598.35" y="150.59" angle="0.00" type="DEFAULT_VEHTYPE" speed="12.36" pos="44.66" lane="3/1to3/0_0" slope="0.00"/>
        <vehicle id="9" x="561.47" y="201.65" angle="-90.00" type="DEFAULT_VEHTYPE" speed="9.74" pos="33.78" lane="3/1to2/1_0" slope="0.00"/>
    </timestep>
    <timestep time="15.00">
        <vehicle id="0" x="566.79" y="598.35" angle="90.00" type="DEFAULT_VEHTYPE" speed="13.51" pos="162.04" lane="2/3to3/3_0" slope="0.00"/>
        <vehicle id="1" x="598.35" y="235.15" angle="0.00" type="DEFAULT_VEHTYPE" speed="13.37" pos="160.10" lane="3/2to3/1_0" slope="0.00"/>
        <vehicle id="10" x="580.54" y="201.65" angle="-90.00" type="DEFAULT_VEHTYPE" speed="4.88" pos="14.71" lane="3/1to2/1_0" slope="0.00"/>
        <vehicle id="11" x="198.35" y="569.39" angle="0.00" type="DEFAULT_VEHTYPE" speed="7.69" pos="25.86" lane="1/3to1/2_0" slope="0.00"/>
        <vehicle id="12" x="198.35" y="377.65" angle="0.00" type="DEFAULT_VEHTYPE" speed="6.40" pos="17.60" lane="1/2to1/1_0" slope="0.00"/>
        <vehicle id="13" x="790.77" y="401.65" angle="-90.00" type="DEFAULT_VEHTYPE" speed="2.79" pos="9.23" lane="4/2to3/2_0" slope="0.00"/>
        <vehicle id="14" x="7.22" y="598.35" angle="90.00" type="DEFAULT_VEHTYPE" speed="2.12" pos="7.22" lane="0/3to1/3_0" slope="0.00"/>
        <vehicle id="2" x="401.65" y="344.21" angle="180.00" type="DEFAULT_VEHTYPE" speed="13.45" pos="139.46" lane="2/1to2/2_0" slope="0.00"/>
        <vehicle id="3" x="598.35" y="71.20" angle="0.00" type="DEFAULT_VEHTYPE" speed="13.77" pos="124.05" lane="3/1to3/0_0" slope="0.00"/>
        <vehicle id="4" x="87.51" y="201.65" angle="-90.00" type="DEFAULT_VEHTYPE" speed="13.29" pos="107.74" lane="1/1to0/1_0" slope="0.00"/>
        <vehicle id="5" x="102.29" y="198.35" angle="90.00" type="DEFAULT_VEHTYPE" speed="13.04" pos="102.29" lane="0/1to1/1_0" slope="0.00"/>
        <vehicle id="6" x="111.27" y="601.65" angle="-90.00" type="DEFAULT_VEHTYPE" speed="12.88" pos="83.98" lane="1/3to0/3_0" slope="0.00"/>
        <vehicle id="7" x="482.31" y="198.35" angle="90.00" type="DEFAULT_VEHTYPE" speed="13.53" pos="77.56" lane="2/1to3/1_0" slope="0.00"/>
        <vehicle id="8" x="598.35" y="137.60" angle="0.00" type="DEFAULT_VEHTYPE" speed="12.99" pos="57.65" lane="3/1to3/0_0" slope="0.00"/>
        <vehicle id="9" x="549.30" y="201.65" angle="-90.00" type="DEFAULT_VEHTYPE" speed="12.18" pos="45.95" lane="3/1to2/1_0" slope="0.00"/>
    </timestep>
    <timestep time="16.00">
        <vehicle id="0" x="577.60" y="598.35" angle="90.00" type="DEFAULT_VEHTYPE" speed="10.81" pos="172.85" lane="2/3to3/3_0" slope="0.00"/>
        <vehicle id="1" x="598.35" y="223.23" angle="0.00" type="DEFAULT_VEHTYPE" speed="11.92" pos="172.02" lane="3/2to3/1_0" slope="0.00"/>
        <vehicle id="10" x="573.93" y="201.65" angle="-90.00" type="DEFAULT_VEHTYPE" speed="6.61" pos="21.32" lane="3/1to2/1_0" slope="0.00"/>
        <vehicle id="11" x="198.35" y="559.87" angle="0.00" type="DEFAULT_VEHTYPE" speed="9.52" pos="35.38" lane="1/3to1/2_0" slope="0.00"/>
        <vehicle id="12" x="198.35" y="369.01" angle="0.00" type="DEFAULT_VEHTYPE" speed="8.64" pos="26.24" lane="1/2to1/1_0" slope="0.00"/>
        <vehicle id="13" x="785.88" y="401.65" angle="-90.00" type="DEFAULT_VEHTYPE" speed="4.90" pos="14.12" lane="4/2to3/2_0" slope="0.00"/>
        <vehicle id="14" x="11.05" y="598.35" angle="90.00" type="DEFAULT_VEHTYPE" speed="3.83" pos="11.05" lane="0/3to1/3_0" slope="0.00"/>
        <vehicle id="2" x="401.65" y="357.60" angle="180.00" type="DEFAULT_VEHTYPE" speed="13.39" pos="152.85" lane="2/1to2/2_0" slope="0.00"/>
        <vehicle id="3" x="598.35" y="58.57" angle="0.00" type="DEFAULT_VEHTYPE" speed="12.63" pos="136.68" lane="3/1to3/0_0" slope="0.00"/>
        <vehicle id="4" x="74.71" y="201.65" angle="-90.00" type="DEFAULT_VEHTYPE" speed="12.80" pos="120.54" lane="1/1to0/1_0" slope="0.00"/>
        <vehicle id="5" x="115.99" y="198.35" angle="90.00" type="DEFAULT_VEHTYPE" speed="13.70" pos="115.99" lane="0/1to1/1_0" slope="0.00"/>
        <vehicle id="6" x="98.54" y="601.65" angle="-90.00" type="DEFAULT_VEHTYPE" speed="12.72" pos="96.71" lane="1/3to0/3_0" slope="0.00"/>
        <vehicle id="7" x="495.76" y="198.35" angle="90.00" type="DEFAULT_VEHTYPE" speed="13.45" pos="91.01" lane="2/1to3/1_0" slope="0.00"/>
        <vehicle id="8" x="598.35" y="124.58" angle="0.00" type="DEFAULT_VEHTYPE" speed="13.02" pos="70.67" lane="3/1to3/0_0" slope="0.00"/>
        <vehicle id="9" x="535.96" y="201.65" angle="-90.00" type="DEFAULT_VEHTYPE" speed="13.34" pos="59.29" lane="3/1to2/1_0" slope="0.00"/>
    </timestep>
    <timestep time="17.00">
        <vehicle id="0" x="584.84" y="598.35" angle="90.00" type="DEFAULT_VEHTYPE" speed="7.24" pos="180.09" lane="2/3to3/3_0" slope="0.00"/>
        <vehicle id="1" x="598.35" y="215.67" angle="0.00" type="DEFAULT_VEHTYPE" speed="7.57" pos="179.58" lane="3/2to3/1_0" slope="0.00"/>
        <vehicle id="10" x="565.99" y="201.65" angle="-90.00" type="DEFAULT_VEHTYPE" speed="7.94" pos="29.26" lane="3/1to2/1_0" slope="0.00"/>
        <vehicle id="11" x="198.35" y="548.37" angle="0.00" type="DEFAULT_VEHTYPE" speed="11.50" pos="46.88" lane="1/3to1/2_0" slope="0.00"/>
        <vehicle id="12" x="198.35" y="358.95" angle="0.00" type="DEFAULT_VEHTYPE" speed="10.06" pos="36.30" lane="1/2to1/1_0" slope="0.00"/>
        <vehicle id="13" x="778.60" y="401.65" angle="-90.00" type="DEFAULT_VEHTYPE" speed="7.28" pos="21.40" lane="4/2to3/2_0" slope="0.00"/>
        <vehicle id="14" x="17.03" y="598.35" angle="90.00" type="DEFAULT_VEHTYPE" speed="5.98" pos="17.03" lane="0/3to1/3_0" slope="0.00"/>
        <vehicle id="2" x="401.65" y="371.37" angle="180.00" type="DEFAULT_VEHTYPE" speed="13.77" pos="166.62" lane="2/1to2/2_0" slope="0.00"/>
        <vehicle id="3" x="598.35" y="45.50" angle="0.00" type="DEFAULT_VEHTYPE" speed="13.07" pos="149.75" lane="3/1to3/0_0" slope="0.00"/>
        <vehicle id="4" x="61.88" y="201.65" angle="-90.00" type="DEFAULT_VEHTYPE" speed="12.83" pos="133.37" lane="1/1to0/1_0" slope="0.00"/>
        <vehicle id="5" x="128.67" y="198.35" angle="90.00" type="DEFAULT_VEHTYPE" speed="12.67" pos="128.67" lane="0/1to1/1_0" slope="0.00"/>
        <vehicle id="6" x="85.36" y="601.65" angle="-90.00" type="DEFAULT_VEHTYPE" speed="13.19" pos="109.89" lane="1/3to0/3_0" slope="0.00"/>
        <vehicle id="7" x="509.64" y="198.35" angle="90.00" type="DEFAULT_VEHTYPE" speed="13.88" pos="104.89" lane="2/1to3/1_0" slope="0.00"/>
        <vehicle id="8" x="598.35" y="111.79" angle="0.00" type="DEFAULT_VEHTYPE" speed="12.79" pos="83.46" lane="3/1to3/0_0" slope="0.00"/>
        <vehicle id="9" x="523.21" y="201.65" angle="-90.00" type="DEFAULT_VEHTYPE" speed="12.75" pos="72.04" lane="3/1to2/1_0" slope="0.00"/>
    </timestep>
    <timestep time="18.00">
        <vehicle id="0" x="588.87" y="598.35" angle="90.00" type="DEFAULT_VEHTYPE" speed="4.02" pos="184.12" lane="2/3to3/3_0" slope="0.00"/>
        <vehicle id="1" x="598.35" y="210.98" angle="0.00" type="DEFAULT_VEHTYPE" speed="4.69" pos="184.27" lane="3/2to3/1_0" slope="0.00"/>
        <vehicle id="10" x="555.99" y="201.65" angle="-90.00" type="DEFAULT_VEHTYPE" speed="10.00" pos="39.26" lane="3/1to2/1_0" slope="0.00"/>
        <vehicle id="11" x="198.35" y="535.58" angle="0.00" type="DEFAULT_VEHTYPE" speed="12.79" pos="59.67" lane="1/3to1/2_0" slope="0.00"/>
        <vehicle id="12" x="198.35" y="347.36" angle="0.00" type="DEFAULT_VEHTYPE" speed="11.60" pos="47.89" lane="1/2to1/1_0" slope="0.00"/>
        <vehicle id="13" x="769.23" y="401.65" angle="-90.00" type="DEFAULT_VEHTYPE" speed="9.37" pos="30.77" lane="4/2to3/2_0" slope="0.00"/>
        <vehicle id="14" x="24.32" y="598.35" angle="90.00" type="DEFAULT_VEHTYPE" speed="7.29" pos="24.32" lane="0/3to1/3_0" slope="0.00"/>
        <vehicle id="2" x="401.65" y="384.83" angle="180.00" type="DEFAULT_VEHTYPE" speed="13.46" pos="180.08" lane="2/1to2/2_0" slope="0.00"/>
        <vehicle id="3" x="598.35" y="32.46" angle="0.00" type="DEFAULT_VEHTYPE" speed="13.04" pos="162.79" lane="3/1to3/0_0" slope="0.00"/>
        <vehicle id="4" x="49.18" y="201.65" angle="-90.00" type="DEFAULT_VEHTYPE" speed="12.71" pos="146.07" lane="1/1to0/1_0" slope="0.00"/>
        <vehicle id="5" x="142.55" y="198.35" angle="90.00" type="DEFAULT_VEHTYPE" speed="13.88" pos="142.55" lane="0/1to1/1_0" slope="0.00"/>
        <vehicle id="6" x="72.09" y="601.65" angle="-90.00" type="DEFAULT_VEHTYPE" speed="13.27" pos="123.16" lane="1/3to0/3_0" slope="0.00"/>
        <vehicle id="7" x="522.36" y="198.35" angle="90.00" type="DEFAULT_VEHTYPE" speed="12.72" pos="117.61" lane="2/1to3/1_0" slope="0.00"/>
        <vehicle id="8" x="598.35" y="97.89" angle="0.00" type="DEFAULT_VEHTYPE" speed="13.90" pos="97.36" lane="3/1to3/0_0" slope="0.00"/>
        <vehicle id="9" x="509.46" y="201.65" angle="-90.00" type="DEFAULT_VEHTYPE" speed="13.75" pos="85.79" lane="3/1to2/1_0" slope="0.00"/>
    </timestep>
    <timestep time="19.00">
        <vehicle id="0" x="594.86" y="598.35" angle="90.00" type="DEFAULT_VEHTYPE" speed="5.99" pos="190.11" lane="2/3to3/3_0" slope="0.00"/>
        <vehicle id="1" x="598.35" y="204.91" angle="0.00" type="DEFAULT_VEHTYPE" speed="6.07" pos="190.34" lane="3/2to3/1_0" slope="0.00"/>
        <vehicle id="10" x="543.80" y="201.65" angle="-90.00" type="DEFAULT_VEHTYPE" speed="12.18" pos="51.45" lane="3/1to2/1_0" slope="0.00"/>
        <vehicle id="11" x="198.35" y="522.26" angle="0.00" type="DEFAULT_VEHTYPE" speed="13.32" pos="72.99" lane="1/3to1/2_0" slope="0.00"/>
        <vehicle id="12" x="198.35" y="333.93" angle="0.00" type="DEFAULT_VEHTYPE" speed="13.42" pos="61.32" lane="1/2to1/1_0" slope="0.00"/>
        <vehicle id="13" x="758.30" y="401.65" angle="-90.00" type="DEFAULT_VEHTYPE" speed="10.93" pos="41.70" lane="4/2to3/2_0" slope="0.00"/>
        <vehicle id="14" x="34.00" y="598.35" angle="90.00" type="DEFAULT_VEHTYPE" speed="9.68" pos="34.00" lane="0/3to1/3_0" slope="0.00"/>
        <vehicle id="2" x="401.65" y="397.71" angle="180.00" type="DEFAULT_VEHTYPE" speed="12.88" pos="2.46" lane=":2/2_9_0" slope="0.00"/>
        <vehicle id="3" x="598.35" y="19.65" angle="0.00" type="DEFAULT_VEHTYPE" speed="12.80" pos="175.60" lane="3/1to3/0_0" slope="0.00"/>
        <vehicle id="4" x="35.71" y="201.65" angle="-90.00" type="DEFAULT_VEHTYPE" speed="13.47" pos="159.54" lane="1/1to0/1_0" slope="0.00"/>
        <vehicle id="5" x="156.18" y="198.35" angle="90.00" type="DEFAULT_VEHTYPE" speed="13.63" pos="156.18" lane="0/1to1/1_0" slope="0.00"/>
        <vehicle id="6" x="58.39" y="601.65" angle="-90.00" type="DEFAULT_VEHTYPE" speed="13.70" pos="136.86" lane="1/3to0/3_0" slope="0.00"/>
        <vehicle id="7" x="535.68" y="198.35" angle="90.00" type="DEFAULT_VEHTYPE" speed="13.32" pos="130.93" lane="2/1to3/1_0" slope="0.00"/>
        <vehicle id="8" x="598.35" y="84.59" angle="0.00" type="DEFAULT_VEHTYPE" speed="13.30" pos="110.66" lane="3/1to3/0_0" slope="0.00"/>
        <vehicle id="9" x="496.50" y="201.65" angle="-90.00" type="DEFAULT_VEHTYPE" speed="12.96" pos="98.75" lane="3/1to2/1_0" slope="0.00"/>
    </timestep>
    <timestep time="20.00">
        <vehicle id="0" x="598.35" y="592.81" angle="9.70" type="DEFAULT_VEHTYPE" speed="7.84" pos="2.44" lane="3/3to3/2_0" slope="0.00"/>
        <vehicle id="1" x="601.65" y="208.29" angle="170.39" type="DEFAULT_VEHTYPE" speed="8.52" pos="3.54" lane="3/1to3/2_0" slope="0.00"/>
        <vehicle id="10" x="530.51" y="201.65" angle="-90.00" type="DEFAULT_VEHTYPE" speed="13.29" pos="64.74" lane="3/1to2/1_0" slope="0.00"/>
        <vehicle id="11" x="198.35" y="508.67" angle="0.00" type="DEFAULT_VEHTYPE" speed="13.59" pos="86.58" lane="1/3to1/2_0" slope="0.00"/>
        <vehicle id="12" x="198.35" y="321.26" angle="0.00" type="DEFAULT_VEHTYPE" speed="12.68" pos="73.99" lane="1/2to1/1_0" slope="0.00"/>
        <vehicle id="13" x="745.06" y="401.65" angle="-90.00" type="DEFAULT_VEHTYPE" speed="13.24" pos="54.94" lane="4/2to3/2_0" slope="0.00"/>