<?xml version="1.0" encoding="UTF-8"?>

<!-- generated on Tue Nov  5 09:59:21 2013 by SUMO sumo Version 0.18.0
<?xml version="1.0" encoding="UTF-8"?>

<configuration xmlns:xsi="http://www.w3.org/2001/XMLSchema-instance" xsi:noNamespaceSchemaLocation="http://sumo.sf.net/xsd/sumoConfiguration.xsd">

    <input>
        <net-file value="test.net.xml"/>
        <route-files value="test.rou.xml"/>
        <additional-files value="test.rerouter.xml"/>
    </input>

    <output>
        <fcd-output value="test-25.fcd.xml"/>
        <save-state.prefix value="state"/>
    </output>

    <time>
        <begin value="0"/>
        <end value="800"/>
    </time>

    <gui_only>
        <gui-settings-file value="test.settings.xml"/>
    </gui_only>

</configuration>
-->

<fcd-export>
    <timestep time="0.00">
        <vehicle id="0" x="390.15" y="201.65" angle="-90.00" type="DEFAULT_VEHTYPE" speed="0.00" pos="5.10" lane="2/1to1/1_0" slope="0.00"/>
    </timestep>
    <timestep time="1.00">
        <vehicle id="0" x="388.71" y="201.65" angle="-90.00" type="DEFAULT_VEHTYPE" speed="1.44" pos="6.54" lane="2/1to1/1_0" slope="0.00"/>
        <vehicle id="1" x="390.15" y="401.65" angle="-90.00" type="DEFAULT_VEHTYPE" speed="0.00" pos="5.10" lane="2/2to1/2_0" slope="0.00"/>
    </timestep>
    <timestep time="2.00">
        <vehicle id="0" x="385.59" y="201.65" angle="-90.00" type="DEFAULT_VEHTYPE" speed="3.12" pos="9.66" lane="2/1to1/1_0" slope="0.00"/>
        <vehicle id="1" x="387.61" y="401.65" angle="-90.00" type="DEFAULT_VEHTYPE" speed="2.54" pos="7.64" lane="2/2to1/2_0" slope="0.00"/>
    </timestep>
    <timestep time="3.00">
        <vehicle id="0" x="380.52" y="201.65" angle="-90.00" type="DEFAULT_VEHTYPE" speed="5.08" pos="14.73" lane="2/1to1/1_0" slope="0.00"/>
        <vehicle id="1" x="383.24" y="401.65" angle="-90.00" type="DEFAULT_VEHTYPE" speed="4.37" pos="12.01" lane="2/2to1/2_0" slope="0.00"/>
        <vehicle id="2" x="390.15" y="201.65" angle="-90.00" type="DEFAULT_VEHTYPE" speed="0.00" pos="5.10" lane="2/1to1/1_0" slope="0.00"/>
        <vehicle id="3" x="398.35" y="590.15" angle="0.00" type="DEFAULT_VEHTYPE" speed="0.00" pos="5.10" lane="2/3to2/2_0" slope="0.00"/>
    </timestep>
    <timestep time="4.00">
        <vehicle id="0" x="373.55" y="201.65" angle="-90.00" type="DEFAULT_VEHTYPE" speed="6.97" pos="21.70" lane="2/1to1/1_0" slope="0.00"/>
        <vehicle id="1" x="377.23" y="401.65" angle="-90.00" type="DEFAULT_VEHTYPE" speed="6.01" pos="18.02" lane="2/2to1/2_0" slope="0.00"/>
        <vehicle id="2" x="387.95" y="201.65" angle="-90.00" type="DEFAULT_VEHTYPE" speed="2.20" pos="7.30" lane="2/1to1/1_0" slope="0.00"/>
        <vehicle id="3" x="398.35" y="587.56" angle="0.00" type="DEFAULT_VEHTYPE" speed="2.59" pos="7.69" lane="2/3to2/2_0" slope="0.00"/>
        <vehicle id="4" x="794.90" y="201.65" angle="-90.00" type="DEFAULT_VEHTYPE" speed="0.00" pos="5.10" lane="4/1to3/1_0" slope="0.00"/>
    </timestep>
    <timestep time="5.00">
        <vehicle id="0" x="364.59" y="201.65" angle="-90.00" type="DEFAULT_VEHTYPE" speed="8.96" pos="30.66" lane="2/1to1/1_0" slope="0.00"/>
        <vehicle id="1" x="369.21" y="401.65" angle="-90.00" type="DEFAULT_VEHTYPE" speed="8.02" pos="26.04" lane="2/2to1/2_0" slope="0.00"/>
        <vehicle id="2" x="384.02" y="201.65" angle="-90.00" type="DEFAULT_VEHTYPE" speed="3.93" pos="11.23" lane="2/1to1/1_0" slope="0.00"/>
        <vehicle id="3" x="398.35" y="583.10" angle="0.00" type="DEFAULT_VEHTYPE" speed="4.46" pos="12.15" lane="2/3to2/2_0" slope="0.00"/>
        <vehicle id="4" x="792.64" y="201.65" angle="-90.00" type="DEFAULT_VEHTYPE" speed="2.26" pos="7.36" lane="4/1to3/1_0" slope="0.00"/>
        <vehicle id="5" x="590.15" y="201.65" angle="-90.00" type="DEFAULT_VEHTYPE" speed="0.00" pos="5.10" lane="3/1to2/1_0" slope="0.00"/>
    </timestep>
    <timestep time="6.00">
        <vehicle id="0" x="354.16" y="201.65" angle="-90.00" type="DEFAULT_VEHTYPE" speed="10.42" pos="41.09" lane="2/1to1/1_0" slope="0.00"/>
        <vehicle id="1" x="359.01" y="401.65" angle="-90.00" type="DEFAULT_VEHTYPE" speed="10.20" pos="36.24" lane="2/2to1/2_0" slope="0.00"/>
        <vehicle id="2" x="377.57" y="201.65" angle="-90.00" type="DEFAULT_VEHTYPE" speed="6.45" pos="17.68" lane="2/1to1/1_0" slope="0.00"/>
        <vehicle id="3" x="398.35" y="576.93" angle="0.00" type="DEFAULT_VEHTYPE" speed="6.17" pos="18.32" lane="2/3to2/2_0" slope="0.00"/>
        <vehicle id="4" x="787.85" y="201.65" angle="-90.00" type="DEFAULT_VEHTYPE" speed="4.80" pos="12.15" lane="4/1to3/1_0" slope="0.00"/>
        <vehicle id="5" x="588.22" y="201.65" angle="-90.00" type="DEFAULT_VEHTYPE" speed="1.93" pos="7.03" lane="3/1to2/1_0" slope="0.00"/>
        <vehicle id="6" x="598.35" y="390.15" angle="0.00" type="DEFAULT_VEHTYPE" speed="0.00" pos="5.10" lane="3/2to3/1_0" slope="0.00"/>
    </timestep>
    <timestep time="7.00">
        <vehicle id="0" x="341.96" y="201.65" angle="-90.00" type="DEFAULT_VEHTYPE" speed="12.20" pos="53.29" lane="2/1to1/1_0" slope="0.00"/>
        <vehicle id="1" x="347.44" y="401.65" angle="-90.00" type="DEFAULT_VEHTYPE" speed="11.58" pos="47.81" lane="2/2to1/2_0" slope="0.00"/>
        <vehicle id="2" x="368.92" y="201.65" angle="-90.00" type="DEFAULT_VEHTYPE" speed="8.65" pos="26.33" lane="2/1to1/1_0" slope="0.00"/>
        <vehicle id="3" x="398.35" y="569.24" angle="0.00" type="DEFAULT_VEHTYPE" speed="7.70" pos="26.01" lane="2/3to2/2_0" slope="0.00"/>
        <vehicle id="4" x="781.61" y="201.65" angle="-90.00" type="DEFAULT_VEHTYPE" speed="6.24" pos="18.39" lane="4/1to3/1_0" slope="0.00"/>
        <vehicle id="5" x="584.20" y="201.65" angle="-90.00" type="DEFAULT_VEHTYPE" speed="4.02" pos="11.05" lane="3/1to2/1_0" slope="0.00"/>
        <vehicle id="6" x="598.35" y="388.26" angle="0.00" type="DEFAULT_VEHTYPE" speed="1.89" pos="6.99" lane="3/2to3/1_0" slope="0.00"/>
        <vehicle id="7" x="401.65" y="5.10" angle="180.00" type="DEFAULT_VEHTYPE" speed="0.00" pos="5.10" lane="2/0to2/1_0" slope="0.00"/>
    </timestep>
    <timestep time="8.00">
        <vehicle id="0" x="328.11" y="201.65" angle="-90.00" type="DEFAULT_VEHTYPE" speed="13.86" pos="67.14" lane="2/1to1/1_0" slope="0.00"/>
        <vehicle id="1" x="333.93" y="401.65" angle="-90.00" type="DEFAULT_VEHTYPE" speed="13.51" pos="61.32" lane="2/2to1/2_0" slope="0.00"/>
        <vehicle id="2" x="357.98" y="201.65" angle="-90.00" type="DEFAULT_VEHTYPE" speed="10.94" pos="37.27" lane="2/1to1/1_0" slope="0.00"/>
        <vehicle id="3" x="398.35" y="559.94" angle="0.00" type="DEFAULT_VEHTYPE" speed="9.30" pos="35.31" lane="2/3to2/2_0" slope="0.00"/>
        <vehicle id="4" x="772.97" y="201.65" angle="-90.00" type="DEFAULT_VEHTYPE" speed="8.64" pos="27.03" lane="4/1to3/1_0" slope="0.00"/>
        <vehicle id="5" x="578.83" y="201.65" angle="-90.00" type="DEFAULT_VEHTYPE" speed="5.37" pos="16.42" lane="3/1to2/1_0" slope="0.00"/>
        <vehicle id="6" x="598.35" y="383.80" angle="0.00" type="DEFAULT_VEHTYPE" speed="4.45" pos="11.45" lane="3/2to3/1_0" slope="0.00"/>
        <vehicle id="7" x="401.65" y="6.81" angle="180.00" type="DEFAULT_VEHTYPE" speed="1.71" pos="6.81" lane="2/0to2/1_0" slope="0.00"/>
        <vehicle id="8" x="598.35" y="794.90" angle="0.00" type="DEFAULT_VEHTYPE" speed="0.00" pos="5.10" lane="3/4to3/3_0" slope="0.00"/>
    </timestep>
    <timestep time="9.00">
        <vehicle id="0" x="314.37" y="201.65" angle="-90.00" type="DEFAULT_VEHTYPE" speed="13.73" pos="80.88" lane="2/1to1/1_0" slope="0.00"/>
        <vehicle id="1" x="320.19" y="401.65" angle="-90.00" type="DEFAULT_VEHTYPE" speed="13.74" pos="75.06" lane="2/2to1/2_0" slope="0.00"/>
        <vehicle id="2" x="344.87" y="201.65" angle="-90.00" type="DEFAULT_VEHTYPE" speed="13.11" pos="50.38" lane="2/1to1/1_0" slope="0.00"/>
        <vehicle id="3" x="398.35" y="548.57" angle="0.00" type="DEFAULT_VEHTYPE" speed="11.37" pos="46.68" lane="2/3to2/2_0" slope="0.00"/>
        <vehicle id="4" x="762.99" y="201.65" angle="-90.00" type="DEFAULT_VEHTYPE" speed="9.98" pos="37.01" lane="4/1to3/1_0" slope="0.00"/>
        <vehicle id="5" x="571.19" y="201.65" angle="-90.00" type="DEFAULT_VEHTYPE" speed="7.63" pos="24.06" lane="3/1to2/1_0" slope="0.00"/>
        <vehicle id="6" x="598.35" y="377.04" angle="0.00" type="DEFAULT_VEHTYPE" speed="6.76" pos="18.21" lane="3/2to3/1_0" slope="0.00"/>
        <vehicle id="7" x="401.65" y="10.90" angle="180.00" type="DEFAULT_VEHTYPE" speed="4.09" pos="10.90" lane="2/0to2/1_0" slope="0.00"/>
        <vehicle id="8" x="598.35" y="793.04" angle="0.00" type="DEFAULT_VEHTYPE" speed="1.86" pos="6.96" lane="3/4to3/3_0" slope="0.00"/>
        <vehicle id="9" x="401.65" y="209.85" angle="180.00" type="DEFAULT_VEHTYPE" speed="0.00" pos="5.10" lane="2/1to2/2_0" slope="0.00"/>
    </timestep>
    <timestep time="10.00">
        <vehicle id="0" x="301.53" y="201.65" angle="-90.00" type="DEFAULT_VEHTYPE" speed="12.84" pos="93.72" lane="2/1to1/1_0" slope="0.00"/>
        <vehicle id="1" x="306.41" y="401.65" angle="-90.00" type="DEFAULT_VEHTYPE" speed="13.78" pos="88.84" lane="2/2to1/2_0" slope="0.00"/>
        <vehicle id="10" x="609.85" y="198.35" angle="90.00" type="DEFAULT_VEHTYPE" speed="0.00" pos="5.10" lane="3/1to4/1_0" slope="0.00"/>
        <vehicle id="2" x="331.28" y="201.65" angle="-90.00" type="DEFAULT_VEHTYPE" speed="13.59" pos="63.97" lane="2/1to1/1_0" slope="0.00"/>
        <vehicle id="3" x="398.35" y="535.54" angle="0.00" type="DEFAULT_VEHTYPE" speed="13.03" pos="59.71" lane="2/3to2/2_0" slope="0.00"/>
        <vehicle id="4" x="751.34" y="201.65" angle="-90.00" type="DEFAULT_VEHTYPE" speed="11.65" pos="48.66" lane="4/1to3/1_0" slope="0.00"/>
        <vehicle id="5" x="561.74" y="201.65" angle="-90.00" type="DEFAULT_VEHTYPE" speed="9.46" pos="33.51" lane="3/1to2/1_0" slope="0.00"/>
        <vehicle id="6" x="598.35" y="368.58" angle="0.00" type="DEFAULT_VEHTYPE" speed="8.46" pos="26.67" lane="3/2to3/1_0" slope="0.00"/>
        <vehicle id="7" x="401.65" y="16.38" angle="180.00" type="DEFAULT_VEHTYPE" speed="5.48" pos="16.38" lane="2/0to2/1_0" slope="0.00"/>
        <vehicle id="8" x="598.35" y="789.83" angle="0.00" type="DEFAULT_VEHTYPE" speed="3.21" pos="10.17" lane="3/4to3/3_0" slope="0.00"/>
        <vehicle id="9" x="401.65" y="212.05" angle="180.00" type="DEFAULT_VEHTYPE" speed="2.20" pos="7.30" lane="2/1to2/2_0" slope="0.00"/>
    </timestep>
    <timestep time="11.00">
        <vehicle id="0" x="288.38" y="201.65" angle="-90.00" type="DEFAULT_VEHTYPE" speed="13.15" pos="106.87" lane="2/1to1/1_0" slope="0.00"/>
        <vehicle id="1" x="292.73" y="401.65" angle="-90.00" type="DEFAULT_VEHTYPE" speed="13.68" pos="102.52" lane="2/2to1/2_0" slope="0.00"/>
        <vehicle id="10" x="611.24" y="198.35" angle="90.00" type="DEFAULT_VEHTYPE" speed="1.39" pos="6.49" lane="3/1to4/1_0" slope="0.00"/>
        <vehicle id="11" x="401.65" y="609.85" angle="180.00" type="DEFAULT_VEHTYPE" speed="0.00" pos="5.10" lane="2/3to2/4_0" slope="0.00"/>
        <vehicle id="2" x="318.02" y="201.65" angle="-90.00" type="DEFAULT_VEHTYPE" speed="13.26" pos="77.23" lane="2/1to1/1_0" slope="0.00"/>
        <vehicle id="3" x="398.35" y="522.88" angle="0.00" type="DEFAULT_VEHTYPE" speed="12.66" pos="72.37" lane="2/3to2/2_0" slope="0.00"/>
        <vehicle id="4" x="737.68" y="201.65" angle="-90.00" type="DEFAULT_VEHTYPE" speed="13.66" pos="62.32" lane="4/1to3/1_0" slope="0.00"/>
        <vehicle id="5" x="550.52" y="201.65" angle="-90.00" type="DEFAULT_VEHTYPE" speed="11.22" pos="44.73" lane="3/1to2/1_0" slope="0.00"/>
        <vehicle id="6" x="598.35" y="357.71" angle="0.00" type="DEFAULT_VEHTYPE" speed="10.87" pos="37.54" lane="3/2to3/1_0" slope="0.00"/>
        <vehicle id="7" x="401.65" y="24.42" angle="180.00" type="DEFAULT_VEHTYPE" speed="8.04" pos="24.42" lane="2/0to2/1_0" slope="0.00"/>
        <vehicle id="8" x="598.35" y="784.39" angle="0.00" type="DEFAULT_VEHTYPE" speed="5.45" pos="15.61" lane="3/4to3/3_0" slope="0.00"/>
        <vehicle id="9" x="401.65" y="216.14" angle="180.00" type="DEFAULT_VEHTYPE" speed="4.09" pos="11.39" lane="2/1to2/2_0" slope="0.00"/>
    </timestep>
    <timestep time="12.00">
        <vehicle id="0" x="274.72" y="201.65" angle="-90.00" type="DEFAULT_VEHTYPE" speed="13.67" pos="120.53" lane="2/1to1/1_0" slope="0.00"/>
        <vehicle id="1" x="280.12" y="401.65" angle="-90.00" type="DEFAULT_VEHTYPE" speed="12.61" pos="115.13" lane="2/2to1/2_0" slope="0.00"/>
        <vehicle id="10" x="615.13" y="198.35" angle="90.00" type="DEFAULT_VEHTYPE" speed="3.89" pos="10.38" lane="3/1to4/1_0" slope="0.00"/>
        <vehicle id="11" x="401.65" y="611.51" angle="180.00" type="DEFAULT_VEHTYPE" speed="1.66" pos="6.76" lane="2/3to2/4_0" slope="0.00"/>
        <vehicle id="12" x="209.85" y="198.35" angle="90.00" type="DEFAULT_VEHTYPE" speed="0.00" pos="5.10" lane="1/1to2/1_0" slope="0.00"/>
        <vehicle id="2" x="304.21" y="201.65" angle="-90.00" type="DEFAULT_VEHTYPE" speed="13.81" pos="91.04" lane="2/1to1/1_0" slope="0.00"/>
        <vehicle id="3" x="398.35" y="509.39" angle="0.00" type="DEFAULT_VEHTYPE" speed="13.49" pos="85.86" lane="2/3to2/2_0" slope="0.00"/>
        <vehicle id="4" x="724.22" y="201.65" angle="-90.00" type="DEFAULT_VEHTYPE" speed="13.46" pos="75.78" lane="4/1to3/1_0" slope="0.00"/>
        <vehicle id="5" x="536.81" y="201.65" angle="-90.00" type="DEFAULT_VEHTYPE" speed="13.71" pos="58.44" lane="3/1to2/1_0" slope="0.00"/>
        <vehicle id="6" x="598.35" y="344.98" angle="0.00" type="DEFAULT_VEHTYPE" speed="12.73" pos="50.27" lane="3/2to3/1_0" slope="0.00"/>
        <vehicle id="7" x="401.65" y="34.79" angle="180.00" type="DEFAULT_VEHTYPE" speed="10.37" pos="34.79" lane="2/0to2/1_0" slope="0.00"/>
        <vehicle id="8" x="598.35" y="776.58" angle="0.00" type="DEFAULT_VEHTYPE" speed="7.81" pos="23.42" lane="3/4to3/3_0" slope="0.00"/>
        <vehicle id="9" x="401.65" y="222.77" angle="180.00" type="DEFAULT_VEHTYPE" speed="6.63" pos="18.02" lane="2/1to2/2_0" slope="0.00"/>
    </timestep>
    <timestep time="13.00">
        <vehicle id="0" x="261.70" y="201.65" angle="-90.00" type="DEFAULT_VEHTYPE" speed="13.02" pos="133.55" lane="2/1to1/1_0" slope="0.00"/>
        <vehicle id="1" x="266.77" y="401.65" angle="-90.00" type="DEFAULT_VEHTYPE" speed="13.35" pos="128.48" lane="2/2to1/2_0" slope="0.00"/>
        <vehicle id="10" x="620.35" y="198.35" angle="90.00" type="DEFAULT_VEHTYPE" speed="5.22" pos="15.60" lane="3/1to4/1_0" slope="0.00"/>
        <vehicle id="11" x="401.65" y="615.74" angle="180.00" type="DEFAULT_VEHTYPE" speed="4.23" pos="10.99" lane="2/3to2/4_0" slope="0.00"/>
        <vehicle id="12" x="212.06" y="198.35" angle="90.00" type="DEFAULT_VEHTYPE" speed="2.21" pos="7.31" lane="1/1to2/1_0" slope="0.00"/>
        <vehicle id="13" x="609.85" y="398.35" angle="90.00" type="DEFAULT_VEHTYPE" speed="0.00" pos="5.10" lane="3/2to4/2_0" slope="0.00"/>
        <vehicle id="2" x="290.58" y="201.65" angle="-90.00" type="DEFAULT_VEHTYPE" speed="13.62" pos="104.67" lane="2/1to1/1_0" slope="0.00"/>
        <vehicle id="3" x="398.35" y="496.29" angle="0.00" type="DEFAULT_VEHTYPE" speed="13.10" pos="98.96" lane="2/3to2/2_0" slope="0.00"/>
        <vehicle id="4" x="710.82" y="201.65" angle="-90.00" type="DEFAULT_VEHTYPE" speed="13.39" pos="89.18" lane="4/1to3/1_0" slope="0.00"/>
        <vehicle id="5" x="523.57" y="201.65" angle="-90.00" type="DEFAULT_VEHTYPE" speed="13.23" pos="71.68" lane="3/1to2/1_0" slope="0.00"/>
        <vehicle id="6" x="598.35" y="332.15" angle="0.00" type="DEFAULT_VEHTYPE" speed="12.83" pos="63.10" lane="3/2to3/1_0" slope="0.00"/>
        <vehicle id="7" x="401.65" y="46.99" angle="180.00" type="DEFAULT_VEHTYPE" speed="12.21" pos="46.99" lane="2/0to2/1_0" slope="0.00"/>
        <vehicle id="8" x="598.35" y="766.71" angle="0.00" type="DEFAULT_VEHTYPE" speed="9.87" pos="33.29" lane="3/4to3/3_0" slope="0.00"/>
        <vehicle id="9" x="401.65" y="231.52" angle="180.00" type="DEFAULT_VEHTYPE" speed="8.75" pos="26.77" lane="2/1to2/2_0" slope="0.00"/>
    </timestep>
    <timestep time="14.00">
        <vehicle id="0" x="248.94" y="201.65" angle="-90.00" type="DEFAULT_VEHTYPE" speed="12.76" pos="146.31" lane="2/1to1/1_0" slope="0.00"/>
        <vehicle id="1" x="253.68" y="401.65" angle="-90.00" type="DEFAULT_VEHTYPE" speed="13.09" pos="141.57" lane="2/2to1/2_0" slope="0.00"/>
        <vehicle id="10" x="626.91" y="198.35" angle="90.00" type="DEFAULT_VEHTYPE" speed="6.56" pos="22.16" lane="3/1to4/1_0" slope="0.00"/>
        <vehicle id="11" x="401.65" y="622.19" angle="180.00" type="DEFAULT_VEHTYPE" speed="6.45" pos="17.44" lane="2/3to2/4_0" slope="0.00"/>
        <vehicle id="12" x="216.33" y="198.35" angle="90.00" type="DEFAULT_VEHTYPE" speed="4.27" pos="11.58" lane="1/1to2/1_0" slope="0.00"/>
        <vehicle id="13" x="612.00" y="398.35" angle="90.00" type="DEFAULT_VEHTYPE" speed="2.15" pos="7.25" lane="3/2to4/2_0" slope="0.00"/>
        <vehicle id="14" x="590.15" y="601.65" angle="-90.00" type="DEFAULT_VEHTYPE" speed="0.00" pos="5.10" lane="3/3to2/3_0" slope="0.00"/>
        <vehicle id="2" x="276.82" y="201.65" angle="-90.00" type="DEFAULT_VEHTYPE" speed="13.76" pos="118.43" lane="2/1to1/1_0" slope="0.00"/>
        <vehicle id="3" x="398.35" y="483.59" angle="0.00" type="DEFAULT_VEHTYPE" speed="12.70" pos="111.66" lane="2/3to2/2_0" slope="0.00"/>
        <vehicle id="4" x="697.56" y="201.65" angle="-90.00" type="DEFAULT_VEHTYPE" speed="13.26" pos="102.44" lane="4/1to3/1_0" slope="0.00"/>
        <vehicle id="5" x="510.23" y="201.65" angle="-90.00" type="DEFAULT_VEHTYPE" speed="13.35" pos="85.02" lane="3/1to2/1_0" slope="0.00"/>
        <vehicle id="6" x="598.35" y="319.18" angle="0.00" type="DEFAULT_VEHTYPE" speed="12.98" pos="76.07" lane="3/2to3/1_0" slope="0.00"/>
        <vehicle id="7" x="401.65" y="60.30" angle="180.00" type="DEFAULT_VEHTYPE" speed="13.31" pos="60.30" lane="2/0to2/1_0" slope="0.00"/>
        <vehicle id="8" x="598.35" y="755.37" angle="0.00" type="DEFAULT_VEHTYPE" speed="11.33" pos="44.63" lane="3/4to3/3_0" slope="0.00"/>
        <vehicle id="9" x="401.65" y="242.13" angle="180.00" type="DEFAULT_VEHTYPE" speed="10.61" pos="37.38" lane="2/1to2/2_0" slope="0.00"/>
    </timestep>
    <timestep time="15.00">
        <vehicle id="0" x="235.90" y="201.65" angle="-90.00" type="DEFAULT_VEHTYPE" speed="13.04" pos="159.35" lane="2/1to1/1_0" slope="0.00"/>
        <vehicle id="1" x="240.79" y="401.65" angle="-90.00" type="DEFAULT_VEHTYPE" speed="12.88" pos="154.46" lane="2/2to1/2_0" slope="0.00"/>
        <vehicle id="10" x="635.44" y="198.35" angle="90.00" type="DEFAULT_VEHTYPE" speed="8.53" pos="30.69" lane="3/1to4/1_0" slope="0.00"/>
        <vehicle id="11" x="401.65" y="631.18" angle="180.00" type="DEFAULT_VEHTYPE" speed="8.99" pos="26.43" lane="2/3to2/4_0" slope="0.00"/>
        <vehicle id="12" x="222.69" y="198.35" angle="90.00" type="DEFAULT_VEHTYPE" speed="6.36" pos="17.94" lane="1/1to2/1_0" slope="0.00"/>
        <vehicle id="13" x="615.88" y="398.35" angle="90.00" type="DEFAULT_VEHTYPE" speed="3.88" pos="11.13" lane="3/2to4/2_0" slope="0.00"/>
        <vehicle id="14" x="588.82" y="601.65" angle="-90.00" type="DEFAULT_VEHTYPE" speed="1.33" pos="6.43" lane="3/3to2/3_0" slope="0.00"/>
        <vehicle id="15" x="601.65" y="209.85" angle="180.00" type="DEFAULT_VEHTYPE" speed="0.00" pos="5.10" lane="3/1to3/2_0" slope="0.00"/>
        <vehicle id="2" x="263.53" y="201.65" angle="-90.00" type="DEFAULT_VEHTYPE" speed="13.29" pos="131.72" lane="2/1to1/1_0" slope="0.00"/>
        <vehicle id="3" x="398.35" y="470.06" angle="0.00" type="DEFAULT_VEHTYPE" speed="13.53" pos="125.19" lane="2/3to2/2_0" slope="0.00"/>
        <vehicle id="4" x="684.59" y="201.65" angle="-90.00" type="DEFAULT_VEHTYPE" speed="12.97" pos="115.41" lane="4/1to3/1_0" slope="0.00"/>
        <vehicle id="5" x="496.49" y="201.65" angle="-90.00" type="DEFAULT_VEHTYPE" speed="13.74" pos="98.76" lane="3/1to2/1_0" slope="0.00"/>
        <vehicle id="6" x="598.35" y="306.20" angle="0.00" type="DEFAULT_VEHTYPE" speed="12.97" pos="89.05" lane="3/2to3/1_0" slope="0.00"/>
        <vehicle id="7" x="401.65" y="74.02" angle="180.00" type="DEFAULT_VEHTYPE" speed="13.72" pos="74.02" lane="2/0to2/1_0" slope="0.00"/>
        <vehicle id="8" x="598.35" y="742.62" angle="0.00" type="DEFAULT_VEHTYPE" speed="12.75" pos="57.38" lane="3/4to3/3_0" slope="0.00"/>
        <vehicle id="9" x="401.65" y="254.85" angle="180.00" type="DEFAULT_VEHTYPE" speed="12.72" pos="50.10" lane="2/1to2/2_0" slope="0.00"/>
    </timestep>
    <timestep time="16.00">
        <vehicle id="0" x="224.17" y="201.65" angle="-90.00" type="DEFAULT_VEHTYPE" speed="11.73" pos="171.08" lane="2/1to1/1_0" slope="0.00"/>
        <vehicle id="1" x="228.21" y="401.65" angle="-90.00" type="DEFAULT_VEHTYPE" speed="12.59" pos="167.04" lane="2/2to1/2_0" slope="0.00"/>
        <vehicle id="10" x="646.44" y="198.35" angle="90.00" type="DEFAULT_VEHTYPE" speed="11.00" pos="41.69" lane="3/1to4/1_0" slope="0.00"/>
        <vehicle id="11" x="401.65" y="641.65" angle="180.00" type="DEFAULT_VEHTYPE" speed="10.48" pos="36.90" lane="2/3to2/4_0" slope="0.00"/>
        <vehicle id="12" x="230.82" y="198.35" angle="90.00" type="DEFAULT_VEHTYPE" speed="8.13" pos="26.07" lane="1/1to2/1_0" slope="0.00"/>
        <vehicle id="13" x="621.29" y="398.35" angle="90.00" type="DEFAULT_VEHTYPE" speed="5.41" pos="16.54" lane="3/2to4/2_0" slope="0.00"/>
        <vehicle id="14" x="586.12" y="601.65" angle="-90.00" type="DEFAULT_VEHTYPE" speed="2.70" pos="9.13" lane="3/3to2/3_0" slope="0.00"/>
        <vehicle id="15" x="601.65" y="211.74" angle="180.00" type="DEFAULT_VEHTYPE" speed="1.89" pos="6.99" lane="3/1to3/2_0" slope="0.00"/>
        <vehicle id="16" x="390.15" y="401.65" angle="-90.00" type="DEFAULT_VEHTYPE" speed="0.00" pos="5.10" lane="2/2to1/2_0" slope="0.00"/>
        <vehicle id="2" x="250.80" y="201.65" angle="-90.00" type="DEFAULT_VEHTYPE" speed="12.72" pos="144.45" lane="2/1to1/1_0" slope="0.00"/>
        <vehicle id="3" x="398.35" y="456.72" angle="0.00" type="DEFAULT_VEHTYPE" speed="13.34" pos="138.53" lane="2/3to2/2_0" slope="0.00"/>
        <vehicle id="4" x="671.46" y="201.65" angle="-90.00" type="DEFAULT_VEHTYPE" speed="13.13" pos="128.54" lane="4/1to3/1_0" slope="0.00"/>
        <vehicle id="5" x="482.95" y="201.65" angle="-90.00" type="DEFAULT_VEHTYPE" speed="13.54" pos="112.30" lane="3/1to2/1_0" slope="0.00"/>
        <vehicle id="6" x="598.35" y="292.80" angle="0.00" type="DEFAULT_VEHTYPE" speed="13.41" pos="102.45" lane="3/2to3/1_0" slope="0.00"/>
        <vehicle id="7" x="401.65" y="87.03" angle="180.00" type="DEFAULT_VEHTYPE" speed="13.01" pos="87.03" lane="2/0to2/1_0" slope="0.00"/>
        <vehicle id="8" x="598.35" y="729.49" angle="0.00" type="DEFAULT_VEHTYPE" speed="13.13" pos="70.51" lane="3/4to3/3_0" slope="0.00"/>
        <vehicle id="9" x="401.65" y="268.01" angle="180.00" type="DEFAULT_VEHTYPE" speed="13.15" pos="63.26" lane="2/1to2/2_0" slope="0.00"/>
    </timestep>
    <timestep time="17.00">
        <vehicle id="0" x="216.81" y="201.65" angle="-90.00" type="DEFAULT_VEHTYPE" speed="7.36" pos="178.44" lane="2/1to1/1_0" slope="0.00"/>
        <vehicle id="1" x="218.88" y="401.65" angle="-90.00" type="DEFAULT_VEHTYPE" speed="9.32" pos="176.37" lane="2/2to1/2_0" slope="0.00"/>
        <vehicle id="10" x="659.18" y="198.35" angle="90.00" type="DEFAULT_VEHTYPE" speed="12.74" pos="54.43" lane="3/1to4/1_0" slope="0.00"/>
        <vehicle id="11" x="401.65" y="653.54" angle="180.00" type="DEFAULT_VEHTYPE" speed="11.88" pos="48.79" lane="2/3to2/4_0" slope="0.00"/>
        <vehicle id="12" x="241.54" y="198.35" angle="90.00" type="DEFAULT_VEHTYPE" speed="10.72" pos="36.79" lane="1/1to2/1_0" slope="0.00"/>
        <vehicle id="13" x="628.67" y="398.35" angle="90.00" type="DEFAULT_VEHTYPE" speed="7.38" pos="23.92" lane="3/2to4/2_0" slope="0.00"/>
        <vehicle id="14" x="582.00" y="601.65" angle="-90.00" type="DEFAULT_VEHTYPE" speed="4.12" pos="13.25" lane="3/3to2/3_0" slope="0.00"/>
        <vehicle id="15" x="601.65" y="215.69" angle="180.00" type="DEFAULT_VEHTYPE" speed="3.95" pos="10.94" lane="3/1to3/2_0" slope="0.00"/>
        <vehicle id="16" x="388.70" y="401.65" angle="-90.00" type="DEFAULT_VEHTYPE" speed="1.45" pos="6.55" lane="2/2to1/2_0" slope="0.00"/>
        <vehicle id="17" x="609.85" y="598.35" angle="90.00" type="DEFAULT_VEHTYPE" speed="0.00" pos="5.10" lane="3/3to4/3_0" slope="0.00"/>
        <vehicle id="2" x="237.02" y="201.65" angle="-90.00" type="DEFAULT_VEHTYPE" speed="13.78" pos="158.23" lane="2/1to1/1_0" slope="0.00"/>
        <vehicle id="3" x="398.35" y="443.99" angle="0.00" type="DEFAULT_VEHTYPE" speed="12.73" pos="151.26" lane="2/3to2/2_0" slope="0.00"/>
        <vehicle id="4" x="657.77" y="201.65" angle="-90.00" type="DEFAULT_VEHTYPE" speed="13.68" pos="142.23" lane="4/1to3/1_0" slope="0.00"/>
        <vehicle id="5" x="469.50" y="201.65" angle="-90.00" type="DEFAULT_VEHTYPE" speed="13.45" pos="125.75" lane="3/1to2/1_0" slope="0.00"/>
        <vehicle id="6" x="598.35" y="279.93" angle="0.00" type="DEFAULT_VEHTYPE" speed="12.86" pos="115.32" lane="3/2to3/1_0" slope="0.00"/>
        <vehicle id="7" x="401.65" y="100.32" angle="180.00" type="DEFAULT_VEHTYPE" speed="13.29" pos="100.32" lane="2/0to2/1_0" slope="0.00"/>
        <vehicle id="8" x="598.35" y="716.03" angle="0.00" type="DEFAULT_VEHTYPE" speed="13.46" pos="83.97" lane="3/4to3/3_0" slope="0.00"/>
        <vehicle id="9" x="401.65" y="281.91" angle="180.00" type="DEFAULT_VEHTYPE" speed="13.90" pos="77.16" lane="2/1to2/2_0" slope="0.00"/>
    </timestep>
    <timestep time="18.00">
        <vehicle id="0" x="212.11" y="201.65" angle="-90.00" type="DEFAULT_VEHTYPE" speed="4.70" pos="183.14" lane="2/1to1/1_0" slope="0.00"/>
        <vehicle id="1" x="212.72" y="401.65" angle="-90.00" type="DEFAULT_VEHTYPE" speed="6.17" pos="182.53" lane="2/2to1/2_0" slope="0.00"/>
        <vehicle id="10" x="672.81" y="198.35" angle="90.00" type="DEFAULT_VEHTYPE" speed="13.63" pos="68.06" lane="3/1to4/1_0" slope="0.00"/>
        <vehicle id="11" x="401.65" y="667.24" angle="180.00" type="DEFAULT_VEHTYPE" speed="13.70" pos="62.49" lane="2/3to2/4_0" slope="0.00"/>
        <vehicle id="12" x="254.27" y="198.35" angle="90.00" type="DEFAULT_VEHTYPE" speed="12.74" pos="49.52" lane="1/1to2/1_0" slope="0.00"/>
        <vehicle id="13" x="638.22" y="398.35" angle="90.00" type="DEFAULT_VEHTYPE" speed="9.56" pos="33.47" lane="3/2to4/2_0" slope="0.00"/>
        <vehicle id="14" x="576.23" y="601.65" angle="-90.00" type="DEFAULT_VEHTYPE" speed="5.78" pos="19.02" lane="3/3to2/3_0" slope="0.00"/>
        <vehicle id="15" x="601.65" y="221.66" angle="180.00" type="DEFAULT_VEHTYPE" speed="5.97" pos="16.91" lane="3/1to3/2_0" slope="0.00"/>
        <vehicle id="16" x="385.72" y="401.65" angle="-90.00" type="DEFAULT_VEHTYPE" speed="2.98" pos="9.53" lane="2/2to1/2_0" slope="0.00"/>
        <vehicle id="17" x="611.97" y="598.35" angle="90.00" type="DEFAULT_VEHTYPE" speed="2.12" pos="7.22" lane="3/3to4/3_0" slope="0.00"/>
        <vehicle id="2" x="227.74" y="201.65" angle="-90.00" type="DEFAULT_VEHTYPE" speed="9.28" pos="167.51" lane="2/1to1/1_0" slope="0.00"/>
        <vehicle id="3" x="398.35" y="431.39" angle="0.00" type="DEFAULT_VEHTYPE" speed="12.60" pos="163.86" lane="2/3to2/2_0" slope="0.00"/>
        <vehicle id="4" x="644.51" y="201.65" angle="-90.00" type="DEFAULT_VEHTYPE" speed="13.27" pos="155.49" lane="4/1to3/1_0" slope="0.00"/>
        <vehicle id="5" x="456.82" y="201.65" angle="-90.00" type="DEFAULT_VEHTYPE" speed="12.68" pos="138.43" lane="3/1to2/1_0" slope="0.00"/>
        <vehicle id="6" x="598.35" y="267.05" angle="0.00" type="DEFAULT_VEHTYPE" speed="12.88" pos="128.20" lane="3/2to3/1_0" slope="0.00"/>
        <vehicle id="7" x="401.65" y="113.62" angle="180.00" type="DEFAULT_VEHTYPE" speed="13.30" pos="113.62" lane="2/0to2/1_0" slope="0.00"/>
        <vehicle id="8" x="598.35" y="703.23" angle="0.00" type="DEFAULT_VEHTYPE" speed="12.80" pos="96.77" lane="3/4to3/3_0" slope="0.00"/>
        <vehicle id="9" x="401.65" y="295.37" angle="180.00" type="DEFAULT_VEHTYPE" speed="13.47" pos="90.62" lane="2/1to2/2_0" slope="0.00"/>
    </timestep>
    <timestep time="19.00">
        <vehicle id="0" x="208.81" y="201.65" angle="-90.00" type="DEFAULT_VEHTYPE" speed="3.29" pos="186.44" lane="2/1to1/1_0" slope="0.00"/>
        <vehicle id="1" x="209.05" y="401.65" angle="-90.00" type="DEFAULT_VEHTYPE" speed="3.67" pos="186.20" lane="2/2to1/2_0" slope="0.00"/>
        <vehicle id="10" x="686.30" y="198.35" angle="90.00" type="DEFAULT_VEHTYPE" speed="13.48" pos="81.55" lane="3/1to4/1_0" slope="0.00"/>
        <vehicle id="11" x="401.65" y="680.81" angle="180.00" type="DEFAULT_VEHTYPE" speed="13.57" pos="76.06" lane="2/3to2/4_0" slope="0.00"/>
        <vehicle id="12" x="267.07" y="198.35" angle="90.00" type="DEFAULT_VEHTYPE" speed="12.79" pos="62.32" lane="1/1to2/1_0" slope="0.00"/>
        <vehicle id="13" x="649.77" y="398.35" angle="90.00" type="DEFAULT_VEHTYPE" speed="11.55" pos="45.02" lane="3/2to4/2_0" slope="0.00"/>
        <vehicle id="14" x="568.09" y="601.65" angle="-90.00" type="DEFAULT_VEHTYPE" speed="8.13" pos="27.16" lane="3/3to2/3_0" slope="0.00"/>
        <vehicle id="15" x="601.65" y="229.92" angle="180.00" type="DEFAULT_VEHTYPE" speed="8.26" pos="25.17" lane="3/1to3/2_0" slope="0.00"/>
        <vehicle id="16" x="380.89" y="401.65" angle="-90.00" type="DEFAULT_VEHTYPE" speed="4.83" pos="14.36" lane="2/2to1/2_0" slope="0.00"/>
        <vehicle id="17" x="615.47" y="598.35" angle="90.00" type="DEFAULT_VEHTYPE" speed="3.50" pos="10.72" lane="3/3to4/3_0" slope="0.00"/>
        <vehicle id="19" x="590.15" y="601.65" angle="-90.00" type="DEFAULT_VEHTYPE" speed="0.00" pos="5.10" lane="3/3to2/3_0" slope="0.00"/>