<?xml version="1.0" encoding="UTF-8"?>

<!-- generated on Thu Oct 31 13:34:38 2013 by SUMO sumo Version 0.18.0
<?xml version="1.0" encoding="UTF-8"?>

<configuration xmlns:xsi="http://www.w3.org/2001/XMLSchema-instance" xsi:noNamespaceSchemaLocation="http://sumo.sf.net/xsd/sumoConfiguration.xsd">

    <input>
        <net-file value="test.net.xml"/>
        <route-files value="test.rou.xml"/>
        <additional-files value="test.rerouter.xml"/>
    </input>

    <output>
        <fcd-output value="test-50.fcd.xml"/>
        <save-state.prefix value="state"/>
    </output>

    <time>
        <begin value="0"/>
        <end value="800"/>
    </time>

    <gui_only>
        <gui-settings-file value="test.settings.xml"/>
    </gui_only>

</configuration>
-->

<fcd-export>
    <timestep time="0.00">
        <vehicle id="0" x="398.35" y="190.15" angle="0.00" type="DEFAULT_VEHTYPE" speed="0.00" pos="5.10" lane="2/1to2/0_0" slope="0.00"/>
    </timestep>
    <timestep time="1.00">
        <vehicle id="0" x="398.35" y="188.71" angle="0.00" type="DEFAULT_VEHTYPE" speed="1.44" pos="6.54" lane="2/1to2/0_0" slope="0.00"/>
        <vehicle id="1" x="190.15" y="601.65" angle="-90.00" type="DEFAULT_VEHTYPE" speed="0.00" pos="5.10" lane="1/3to0/3_0" slope="0.00"/>
    </timestep>
    <timestep time="2.00">
        <vehicle id="0" x="398.35" y="185.59" angle="0.00" type="DEFAULT_VEHTYPE" speed="3.12" pos="9.66" lane="2/1to2/0_0" slope="0.00"/>
        <vehicle id="1" x="187.61" y="601.65" angle="-90.00" type="DEFAULT_VEHTYPE" speed="2.54" pos="7.64" lane="1/3to0/3_0" slope="0.00"/>
        <vehicle id="2" x="190.15" y="401.65" angle="-90.00" type="DEFAULT_VEHTYPE" speed="0.00" pos="5.10" lane="1/2to0/2_0" slope="0.00"/>
    </timestep>
    <timestep time="3.00">
        <vehicle id="0" x="398.35" y="180.52" angle="0.00" type="DEFAULT_VEHTYPE" speed="5.08" pos="14.73" lane="2/1to2/0_0" slope="0.00"/>
        <vehicle id="1" x="183.24" y="601.65" angle="-90.00" type="DEFAULT_VEHTYPE" speed="4.37" pos="12.01" lane="1/3to0/3_0" slope="0.00"/>
        <vehicle id="2" x="187.61" y="401.65" angle="-90.00" type="DEFAULT_VEHTYPE" speed="2.54" pos="7.64" lane="1/2to0/2_0" slope="0.00"/>
        <vehicle id="3" x="390.15" y="201.65" angle="-90.00" type="DEFAULT_VEHTYPE" speed="0.00" pos="5.10" lane="2/1to1/1_0" slope="0.00"/>
    </timestep>
    <timestep time="4.00">
        <vehicle id="0" x="398.35" y="173.81" angle="0.00" type="DEFAULT_VEHTYPE" speed="6.71" pos="21.44" lane="2/1to2/0_0" slope="0.00"/>
        <vehicle id="1" x="176.58" y="601.65" angle="-90.00" type="DEFAULT_VEHTYPE" speed="6.65" pos="18.67" lane="1/3to0/3_0" slope="0.00"/>
        <vehicle id="2" x="183.17" y="401.65" angle="-90.00" type="DEFAULT_VEHTYPE" speed="4.43" pos="12.08" lane="1/2to0/2_0" slope="0.00"/>
        <vehicle id="3" x="388.52" y="201.65" angle="-90.00" type="DEFAULT_VEHTYPE" speed="1.63" pos="6.73" lane="2/1to1/1_0" slope="0.00"/>
        <vehicle id="4" x="390.15" y="401.65" angle="-90.00" type="DEFAULT_VEHTYPE" speed="0.00" pos="5.10" lane="2/2to1/2_0" slope="0.00"/>
    </timestep>
    <timestep time="5.00">
        <vehicle id="0" x="398.35" y="164.50" angle="0.00" type="DEFAULT_VEHTYPE" speed="9.30" pos="30.75" lane="2/1to2/0_0" slope="0.00"/>
        <vehicle id="1" x="168.21" y="601.65" angle="-90.00" type="DEFAULT_VEHTYPE" speed="8.38" pos="27.04" lane="1/3to0/3_0" slope="0.00"/>
        <vehicle id="2" x="176.74" y="401.65" angle="-90.00" type="DEFAULT_VEHTYPE" speed="6.43" pos="18.51" lane="1/2to0/2_0" slope="0.00"/>
        <vehicle id="3" x="384.88" y="201.65" angle="-90.00" type="DEFAULT_VEHTYPE" speed="3.64" pos="10.37" lane="2/1to1/1_0" slope="0.00"/>
        <vehicle id="4" x="388.29" y="401.65" angle="-90.00" type="DEFAULT_VEHTYPE" speed="1.86" pos="6.96" lane="2/2to1/2_0" slope="0.00"/>
        <vehicle id="5" x="590.15" y="201.65" angle="-90.00" type="DEFAULT_VEHTYPE" speed="0.00" pos="5.10" lane="3/1to2/1_0" slope="0.00"/>
    </timestep>
    <timestep time="6.00">
        <vehicle id="0" x="398.35" y="152.94" angle="0.00" type="DEFAULT_VEHTYPE" speed="11.56" pos="42.31" lane="2/1to2/0_0" slope="0.00"/>
        <vehicle id="1" x="157.31" y="601.65" angle="-90.00" type="DEFAULT_VEHTYPE" speed="10.90" pos="37.94" lane="1/3to0/3_0" slope="0.00"/>
        <vehicle id="2" x="168.85" y="401.65" angle="-90.00" type="DEFAULT_VEHTYPE" speed="7.89" pos="26.40" lane="1/2to0/2_0" slope="0.00"/>
        <vehicle id="3" x="379.05" y="201.65" angle="-90.00" type="DEFAULT_VEHTYPE" speed="5.83" pos="16.20" lane="2/1to1/1_0" slope="0.00"/>
        <vehicle id="4" x="384.71" y="401.65" angle="-90.00" type="DEFAULT_VEHTYPE" speed="3.58" pos="10.54" lane="2/2to1/2_0" slope="0.00"/>
        <vehicle id="5" x="587.61" y="201.65" angle="-90.00" type="DEFAULT_VEHTYPE" speed="2.54" pos="7.64" lane="3/1to2/1_0" slope="0.00"/>
        <vehicle id="6" x="601.65" y="5.10" angle="180.00" type="DEFAULT_VEHTYPE" speed="0.00" pos="5.10" lane="3/0to3/1_0" slope="0.00"/>
    </timestep>
    <timestep time="7.00">
        <vehicle id="0" x="398.35" y="139.71" angle="0.00" type="DEFAULT_VEHTYPE" speed="13.23" pos="55.54" lane="2/1to2/0_0" slope="0.00"/>
        <vehicle id="1" x="144.21" y="601.65" angle="-90.00" type="DEFAULT_VEHTYPE" speed="13.10" pos="51.04" lane="1/3to0/3_0" slope="0.00"/>
        <vehicle id="2" x="159.19" y="401.65" angle="-90.00" type="DEFAULT_VEHTYPE" speed="9.67" pos="36.06" lane="1/2to0/2_0" slope="0.00"/>
        <vehicle id="3" x="371.85" y="201.65" angle="-90.00" type="DEFAULT_VEHTYPE" speed="7.20" pos="23.40" lane="2/1to1/1_0" slope="0.00"/>
        <vehicle id="4" x="379.61" y="401.65" angle="-90.00" type="DEFAULT_VEHTYPE" speed="5.10" pos="15.64" lane="2/2to1/2_0" slope="0.00"/>
        <vehicle id="5" x="583.62" y="201.65" angle="-90.00" type="DEFAULT_VEHTYPE" speed="3.99" pos="11.63" lane="3/1to2/1_0" slope="0.00"/>
        <vehicle id="6" x="601.65" y="7.18" angle="180.00" type="DEFAULT_VEHTYPE" speed="2.08" pos="7.18" lane="3/0to3/1_0" slope="0.00"/>
        <vehicle id="7" x="398.35" y="390.15" angle="0.00" type="DEFAULT_VEHTYPE" speed="0.00" pos="5.10" lane="2/2to2/1_0" slope="0.00"/>
    </timestep>
    <timestep time="8.00">
        <vehicle id="0" x="398.35" y="126.52" angle="0.00" type="DEFAULT_VEHTYPE" speed="13.19" pos="68.73" lane="2/1to2/0_0" slope="0.00"/>
        <vehicle id="1" x="130.61" y="601.65" angle="-90.00" type="DEFAULT_VEHTYPE" speed="13.59" pos="64.64" lane="1/3to0/3_0" slope="0.00"/>
        <vehicle id="2" x="146.96" y="401.65" angle="-90.00" type="DEFAULT_VEHTYPE" speed="12.22" pos="48.29" lane="1/2to0/2_0" slope="0.00"/>
        <vehicle id="3" x="362.43" y="201.65" angle="-90.00" type="DEFAULT_VEHTYPE" speed="9.41" pos="32.82" lane="2/1to1/1_0" slope="0.00"/>
        <vehicle id="4" x="372.90" y="401.65" angle="-90.00" type="DEFAULT_VEHTYPE" speed="6.71" pos="22.35" lane="2/2to1/2_0" slope="0.00"/>
        <vehicle id="5" x="577.24" y="201.65" angle="-90.00" type="DEFAULT_VEHTYPE" speed="6.38" pos="18.01" lane="3/1to2/1_0" slope="0.00"/>
        <vehicle id="6" x="601.65" y="10.63" angle="180.00" type="DEFAULT_VEHTYPE" speed="3.44" pos="10.63" lane="3/0to3/1_0" slope="0.00"/>
        <vehicle id="7" x="398.35" y="387.59" angle="0.00" type="DEFAULT_VEHTYPE" speed="2.56" pos="7.66" lane="2/2to2/1_0" slope="0.00"/>
        <vehicle id="8" x="794.90" y="201.65" angle="-90.00" type="DEFAULT_VEHTYPE" speed="0.00" pos="5.10" lane="4/1to3/1_0" slope="0.00"/>
    </timestep>
    <timestep time="9.00">
        <vehicle id="0" x="398.35" y="113.51" angle="0.00" type="DEFAULT_VEHTYPE" speed="13.01" pos="81.74" lane="2/1to2/0_0" slope="0.00"/>
        <vehicle id="1" x="117.15" y="601.65" angle="-90.00" type="DEFAULT_VEHTYPE" speed="13.47" pos="78.10" lane="1/3to0/3_0" slope="0.00"/>
        <vehicle id="2" x="133.23" y="401.65" angle="-90.00" type="DEFAULT_VEHTYPE" speed="13.73" pos="62.02" lane="1/2to0/2_0" slope="0.00"/>
        <vehicle id="3" x="350.58" y="201.65" angle="-90.00" type="DEFAULT_VEHTYPE" speed="11.85" pos="44.67" lane="2/1to1/1_0" slope="0.00"/>
        <vehicle id="4" x="364.12" y="401.65" angle="-90.00" type="DEFAULT_VEHTYPE" speed="8.77" pos="31.13" lane="2/2to1/2_0" slope="0.00"/>
        <vehicle id="5" x="569.52" y="201.65" angle="-90.00" type="DEFAULT_VEHTYPE" speed="7.73" pos="25.73" lane="3/1to2/1_0" slope="0.00"/>
        <vehicle id="6" x="601.65" y="16.32" angle="180.00" type="DEFAULT_VEHTYPE" speed="5.70" pos="16.32" lane="3/0to3/1_0" slope="0.00"/>
        <vehicle id="7" x="398.35" y="382.72" angle="0.00" type="DEFAULT_VEHTYPE" speed="4.87" pos="12.53" lane="2/2to2/1_0" slope="0.00"/>
        <vehicle id="8" x="792.52" y="201.65" angle="-90.00" type="DEFAULT_VEHTYPE" speed="2.38" pos="7.48" lane="4/1to3/1_0" slope="0.00"/>
        <vehicle id="9" x="209.85" y="398.35" angle="90.00" type="DEFAULT_VEHTYPE" speed="0.00" pos="5.10" lane="1/2to2/2_0" slope="0.00"/>
    </timestep>
    <timestep time="10.00">
        <vehicle id="0" x="398.35" y="100.35" angle="0.00" type="DEFAULT_VEHTYPE" speed="13.16" pos="94.90" lane="2/1to2/0_0" slope="0.00"/>
        <vehicle id="1" x="103.56" y="601.65" angle="-90.00" type="DEFAULT_VEHTYPE" speed="13.59" pos="91.69" lane="1/3to0/3_0" slope="0.00"/>
        <vehicle id="10" x="209.85" y="198.35" angle="90.00" type="DEFAULT_VEHTYPE" speed="0.00" pos="5.10" lane="1/1to2/1_0" slope="0.00"/>
        <vehicle id="2" x="120.39" y="401.65" angle="-90.00" type="DEFAULT_VEHTYPE" speed="12.84" pos="74.86" lane="1/2to0/2_0" slope="0.00"/>
        <vehicle id="3" x="336.80" y="201.65" angle="-90.00" type="DEFAULT_VEHTYPE" speed="13.78" pos="58.45" lane="2/1to1/1_0" slope="0.00"/>
        <vehicle id="4" x="353.62" y="401.65" angle="-90.00" type="DEFAULT_VEHTYPE" speed="10.51" pos="41.63" lane="2/2to1/2_0" slope="0.00"/>
        <vehicle id="5" x="560.12" y="201.65" angle="-90.00" type="DEFAULT_VEHTYPE" speed="9.40" pos="35.13" lane="3/1to2/1_0" slope="0.00"/>
        <vehicle id="6" x="601.65" y="23.85" angle="180.00" type="DEFAULT_VEHTYPE" speed="7.52" pos="23.85" lane="3/0to3/1_0" slope="0.00"/>
        <vehicle id="7" x="398.35" y="376.15" angle="0.00" type="DEFAULT_VEHTYPE" speed="6.57" pos="19.10" lane="2/2to2/1_0" slope="0.00"/>
        <vehicle id="8" x="788.75" y="201.65" angle="-90.00" type="DEFAULT_VEHTYPE" speed="3.77" pos="11.25" lane="4/1to3/1_0" slope="0.00"/>
        <vehicle id="9" x="211.20" y="398.35" angle="90.00" type="DEFAULT_VEHTYPE" speed="1.35" pos="6.45" lane="1/2to2/2_0" slope="0.00"/>
    </timestep>
    <timestep time="11.00">
        <vehicle id="0" x="398.35" y="86.85" angle="0.00" type="DEFAULT_VEHTYPE" speed="13.50" pos="108.40" lane="2/1to2/0_0" slope="0.00"/>
        <vehicle id="1" x="90.30" y="601.65" angle="-90.00" type="DEFAULT_VEHTYPE" speed="13.26" pos="104.95" lane="1/3to0/3_0" slope="0.00"/>
        <vehicle id="10" x="211.74" y="198.35" angle="90.00" type="DEFAULT_VEHTYPE" speed="1.89" pos="6.99" lane="1/1to2/1_0" slope="0.00"/>
        <vehicle id="11" x="5.10" y="198.35" angle="90.00" type="DEFAULT_VEHTYPE" speed="0.00" pos="5.10" lane="0/1to1/1_0" slope="0.00"/>
        <vehicle id="2" x="107.24" y="401.65" angle="-90.00" type="DEFAULT_VEHTYPE" speed="13.15" pos="88.01" lane="1/2to0/2_0" slope="0.00"/>
        <vehicle id="3" x="323.12" y="201.65" angle="-90.00" type="DEFAULT_VEHTYPE" speed="13.68" pos="72.13" lane="2/1to1/1_0" slope="0.00"/>
        <vehicle id="4" x="341.75" y="401.65" angle="-90.00" type="DEFAULT_VEHTYPE" speed="11.87" pos="53.50" lane="2/2to1/2_0" slope="0.00"/>
        <vehicle id="5" x="548.37" y="201.65" angle="-90.00" type="DEFAULT_VEHTYPE" speed="11.76" pos="46.88" lane="3/1to2/1_0" slope="0.00"/>
        <vehicle id="6" x="601.65" y="33.13" angle="180.00" type="DEFAULT_VEHTYPE" speed="9.29" pos="33.13" lane="3/0to3/1_0" slope="0.00"/>
        <vehicle id="7" x="398.35" y="367.17" angle="0.00" type="DEFAULT_VEHTYPE" speed="8.97" pos="28.08" lane="2/2to2/1_0" slope="0.00"/>
        <vehicle id="8" x="782.42" y="201.65" angle="-90.00" type="DEFAULT_VEHTYPE" speed="6.33" pos="17.58" lane="4/1to3/1_0" slope="0.00"/>
        <vehicle id="9" x="214.79" y="398.35" angle="90.00" type="DEFAULT_VEHTYPE" speed="3.59" pos="10.04" lane="1/2to2/2_0" slope="0.00"/>
    </timestep>
    <timestep time="12.00">
        <vehicle id="0" x="398.35" y="74.16" angle="0.00" type="DEFAULT_VEHTYPE" speed="12.69" pos="121.09" lane="2/1to2/0_0" slope="0.00"/>
        <vehicle id="1" x="76.49" y="601.65" angle="-90.00" type="DEFAULT_VEHTYPE" speed="13.81" pos="118.76" lane="1/3to0/3_0" slope="0.00"/>
        <vehicle id="10" x="216.17" y="198.35" angle="90.00" type="DEFAULT_VEHTYPE" speed="4.43" pos="11.42" lane="1/1to2/1_0" slope="0.00"/>
        <vehicle id="11" x="7.60" y="198.35" angle="90.00" type="DEFAULT_VEHTYPE" speed="2.50" pos="7.60" lane="0/1to1/1_0" slope="0.00"/>
        <vehicle id="12" x="209.85" y="598.35" angle="90.00" type="DEFAULT_VEHTYPE" speed="0.00" pos="5.10" lane="1/3to2/3_0" slope="0.00"/>
        <vehicle id="2" x="93.57" y="401.65" angle="-90.00" type="DEFAULT_VEHTYPE" speed="13.67" pos="101.68" lane="1/2to0/2_0" slope="0.00"/>
        <vehicle id="3" x="310.51" y="201.65" angle="-90.00" type="DEFAULT_VEHTYPE" speed="12.61" pos="84.74" lane="2/1to1/1_0" slope="0.00"/>
        <vehicle id="4" x="328.26" y="401.65" angle="-90.00" type="DEFAULT_VEHTYPE" speed="13.49" pos="66.99" lane="2/2to1/2_0" slope="0.00"/>
        <vehicle id="5" x="534.91" y="201.65" angle="-90.00" type="DEFAULT_VEHTYPE" speed="13.46" pos="60.34" lane="3/1to2/1_0" slope="0.00"/>
        <vehicle id="6" x="601.65" y="44.91" angle="180.00" type="DEFAULT_VEHTYPE" speed="11.78" pos="44.91" lane="3/0to3/1_0" slope="0.00"/>
        <vehicle id="7" x="398.35" y="356.33" angle="0.00" type="DEFAULT_VEHTYPE" speed="10.84" pos="38.92" lane="2/2to2/1_0" slope="0.00"/>
        <vehicle id="8" x="773.76" y="201.65" angle="-90.00" type="DEFAULT_VEHTYPE" speed="8.66" pos="26.24" lane="4/1to3/1_0" slope="0.00"/>
        <vehicle id="9" x="220.75" y="398.35" angle="90.00" type="DEFAULT_VEHTYPE" speed="5.95" pos="16.00" lane="1/2to2/2_0" slope="0.00"/>
    </timestep>
    <timestep time="13.00">
        <vehicle id="0" x="398.35" y="61.20" angle="0.00" type="DEFAULT_VEHTYPE" speed="12.96" pos="134.05" lane="2/1to2/0_0" slope="0.00"/>
        <vehicle id="1" x="63.04" y="601.65" angle="-90.00" type="DEFAULT_VEHTYPE" speed="13.44" pos="132.21" lane="1/3to0/3_0" slope="0.00"/>
        <vehicle id="10" x="222.44" y="198.35" angle="90.00" type="DEFAULT_VEHTYPE" speed="6.27" pos="17.69" lane="1/1to2/1_0" slope="0.00"/>
        <vehicle id="11" x="12.15" y="198.35" angle="90.00" type="DEFAULT_VEHTYPE" speed="4.55" pos="12.15" lane="0/1to1/1_0" slope="0.00"/>
        <vehicle id="12" x="211.98" y="598.35" angle="90.00" type="DEFAULT_VEHTYPE" speed="2.13" pos="7.23" lane="1/3to2/3_0" slope="0.00"/>
        <vehicle id="13" x="198.35" y="190.15" angle="0.00" type="DEFAULT_VEHTYPE" speed="0.00" pos="5.10" lane="1/1to1/0_0" slope="0.00"/>
        <vehicle id="2" x="80.05" y="401.65" angle="-90.00" type="DEFAULT_VEHTYPE" speed="13.52" pos="115.20" lane="1/2to0/2_0" slope="0.00"/>
        <vehicle id="3" x="296.89" y="201.65" angle="-90.00" type="DEFAULT_VEHTYPE" speed="13.62" pos="98.36" lane="2/1to1/1_0" slope="0.00"/>
        <vehicle id="4" x="315.24" y="401.65" angle="-90.00" type="DEFAULT_VEHTYPE" speed="13.02" pos="80.01" lane="2/2to1/2_0" slope="0.00"/>
        <vehicle id="5" x="521.56" y="201.65" angle="-90.00" type="DEFAULT_VEHTYPE" speed="13.35" pos="73.69" lane="3/1to2/1_0" slope="0.00"/>
        <vehicle id="6" x="601.65" y="58.01" angle="180.00" type="DEFAULT_VEHTYPE" speed="13.10" pos="58.01" lane="3/0to3/1_0" slope="0.00"/>
        <vehicle id="7" x="398.35" y="343.40" angle="0.00" type="DEFAULT_VEHTYPE" speed="12.93" pos="51.85" lane="2/2to2/1_0" slope="0.00"/>
        <vehicle id="8" x="763.17" y="201.65" angle="-90.00" type="DEFAULT_VEHTYPE" speed="10.59" pos="36.83" lane="4/1to3/1_0" slope="0.00"/>
        <vehicle id="9" x="228.23" y="398.35" angle="90.00" type="DEFAULT_VEHTYPE" speed="7.48" pos="23.48" lane="1/2to2/2_0" slope="0.00"/>
    </timestep>
    <timestep time="14.00">
        <vehicle id="0" x="398.35" y="48.57" angle="0.00" type="DEFAULT_VEHTYPE" speed="12.63" pos="146.68" lane="2/1to2/0_0" slope="0.00"/>
        <vehicle id="1" x="49.18" y="601.65" angle="-90.00" type="DEFAULT_VEHTYPE" speed="13.87" pos="146.07" lane="1/3to0/3_0" slope="0.00"/>
        <vehicle id="10" x="230.71" y="198.35" angle="90.00" type="DEFAULT_VEHTYPE" speed="8.28" pos="25.96" lane="1/1to2/1_0" slope="0.00"/>
        <vehicle id="11" x="18.17" y="198.35" angle="90.00" type="DEFAULT_VEHTYPE" speed="6.02" pos="18.17" lane="0/1to1/1_0" slope="0.00"/>
        <vehicle id="12" x="215.95" y="598.35" angle="90.00" type="DEFAULT_VEHTYPE" speed="3.98" pos="11.20" lane="1/3to2/3_0" slope="0.00"/>
        <vehicle id="13" x="198.35" y="188.81" angle="0.00" type="DEFAULT_VEHTYPE" speed="1.34" pos="6.44" lane="1/1to1/0_0" slope="0.00"/>
        <vehicle id="14" x="401.65" y="409.85" angle="180.00" type="DEFAULT_VEHTYPE" speed="0.00" pos="5.10" lane="2/2to2/3_0" slope="0.00"/>
        <vehicle id="2" x="66.54" y="401.65" angle="-90.00" type="DEFAULT_VEHTYPE" speed="13.51" pos="128.71" lane="1/2to0/2_0" slope="0.00"/>
        <vehicle id="3" x="283.12" y="201.65" angle="-90.00" type="DEFAULT_VEHTYPE" speed="13.76" pos="112.13" lane="2/1to1/1_0" slope="0.00"/>
        <vehicle id="4" x="302.48" y="401.65" angle="-90.00" type="DEFAULT_VEHTYPE" speed="12.76" pos="92.77" lane="2/2to1/2_0" slope="0.00"/>
        <vehicle id="5" x="508.47" y="201.65" angle="-90.00" type="DEFAULT_VEHTYPE" speed="13.09" pos="86.78" lane="3/1to2/1_0" slope="0.00"/>
        <vehicle id="6" x="601.65" y="70.71" angle="180.00" type="DEFAULT_VEHTYPE" speed="12.70" pos="70.71" lane="3/0to3/1_0" slope="0.00"/>
        <vehicle id="7" x="398.35" y="330.14" angle="0.00" type="DEFAULT_VEHTYPE" speed="13.26" pos="65.11" lane="2/2to2/1_0" slope="0.00"/>
        <vehicle id="8" x="750.53" y="201.65" angle="-90.00" type="DEFAULT_VEHTYPE" speed="12.64" pos="49.47" lane="4/1to3/1_0" slope="0.00"/>
        <vehicle id="9" x="237.39" y="398.35" angle="90.00" type="DEFAULT_VEHTYPE" speed="9.16" pos="32.64" lane="1/2to2/2_0" slope="0.00"/>
    </timestep>
    <timestep time="15.00">
        <vehicle id="0" x="398.35" y="35.05" angle="0.00" type="DEFAULT_VEHTYPE" speed="13.51" pos="160.20" lane="2/1to2/0_0" slope="0.00"/>
        <vehicle id="1" x="35.81" y="601.65" angle="-90.00" type="DEFAULT_VEHTYPE" speed="13.37" pos="159.44" lane="1/3to0/3_0" slope="0.00"/>
        <vehicle id="10" x="241.42" y="198.35" angle="90.00" type="DEFAULT_VEHTYPE" speed="10.71" pos="36.67" lane="1/1to2/1_0" slope="0.00"/>
        <vehicle id="11" x="25.86" y="198.35" angle="90.00" type="DEFAULT_VEHTYPE" speed="7.69" pos="25.86" lane="0/1to1/1_0" slope="0.00"/>
        <vehicle id="12" x="222.35" y="598.35" angle="90.00" type="DEFAULT_VEHTYPE" speed="6.40" pos="17.60" lane="1/3to2/3_0" slope="0.00"/>
        <vehicle id="13" x="198.35" y="186.02" angle="0.00" type="DEFAULT_VEHTYPE" speed="2.79" pos="9.23" lane="1/1to1/0_0" slope="0.00"/>
        <vehicle id="14" x="401.65" y="411.97" angle="180.00" type="DEFAULT_VEHTYPE" speed="2.12" pos="7.22" lane="2/2to2/3_0" slope="0.00"/>
        <vehicle id="15" x="590.15" y="201.65" angle="-90.00" type="DEFAULT_VEHTYPE" speed="0.00" pos="5.10" lane="3/1to2/1_0" slope="0.00"/>
        <vehicle id="2" x="53.09" y="401.65" angle="-90.00" type="DEFAULT_VEHTYPE" speed="13.45" pos="142.16" lane="1/2to0/2_0" slope="0.00"/>
        <vehicle id="3" x="270.13" y="201.65" angle="-90.00" type="DEFAULT_VEHTYPE" speed="12.99" pos="125.12" lane="2/1to1/1_0" slope="0.00"/>
        <vehicle id="4" x="288.71" y="401.65" angle="-90.00" type="DEFAULT_VEHTYPE" speed="13.77" pos="106.54" lane="2/2to1/2_0" slope="0.00"/>
        <vehicle id="5" x="495.18" y="201.65" angle="-90.00" type="DEFAULT_VEHTYPE" speed="13.29" pos="100.07" lane="3/1to2/1_0" slope="0.00"/>
        <vehicle id="6" x="601.65" y="83.75" angle="180.00" type="DEFAULT_VEHTYPE" speed="13.04" pos="83.75" lane="3/0to3/1_0" slope="0.00"/>
        <vehicle id="7" x="398.35" y="317.26" angle="0.00" type="DEFAULT_VEHTYPE" speed="12.88" pos="77.99" lane="2/2to2/1_0" slope="0.00"/>
        <vehicle id="8" x="736.99" y="201.65" angle="-90.00" type="DEFAULT_VEHTYPE" speed="13.53" pos="63.01" lane="4/1to3/1_0" slope="0.00"/>
        <vehicle id="9" x="248.22" y="398.35" angle="90.00" type="DEFAULT_VEHTYPE" speed="10.83" pos="43.47" lane="1/2to2/2_0" slope="0.00"/>
    </timestep>
    <timestep time="16.00">
        <vehicle id="0" x="398.35" y="21.78" angle="0.00" type="DEFAULT_VEHTYPE" speed="13.28" pos="173.47" lane="2/1to2/0_0" slope="0.00"/>
        <vehicle id="1" x="21.96" y="601.65" angle="-90.00" type="DEFAULT_VEHTYPE" speed="13.84" pos="173.29" lane="1/3to0/3_0" slope="0.00"/>
        <vehicle id="10" x="253.97" y="198.35" angle="90.00" type="DEFAULT_VEHTYPE" speed="12.55" pos="49.22" lane="1/1to2/1_0" slope="0.00"/>
        <vehicle id="11" x="35.79" y="198.35" angle="90.00" type="DEFAULT_VEHTYPE" speed="9.93" pos="35.79" lane="0/1to1/1_0" slope="0.00"/>
        <vehicle id="12" x="230.85" y="598.35" angle="90.00" type="DEFAULT_VEHTYPE" speed="8.50" pos="26.10" lane="1/3to2/3_0" slope="0.00"/>
        <vehicle id="13" x="198.35" y="181.52" angle="0.00" type="DEFAULT_VEHTYPE" speed="4.51" pos="13.73" lane="1/1to1/0_0" slope="0.00"/>
        <vehicle id="14" x="401.65" y="415.91" angle="180.00" type="DEFAULT_VEHTYPE" speed="3.95" pos="11.16" lane="2/2to2/3_0" slope="0.00"/>
        <vehicle id="15" x="588.65" y="201.65" angle="-90.00" type="DEFAULT_VEHTYPE" speed="1.50" pos="6.60" lane="3/1to2/1_0" slope="0.00"/>
        <vehicle id="16" x="398.35" y="390.15" angle="0.00" type="DEFAULT_VEHTYPE" speed="0.00" pos="5.10" lane="2/2to2/1_0" slope="0.00"/>
        <vehicle id="2" x="39.70" y="401.65" angle="-90.00" type="DEFAULT_VEHTYPE" speed="13.39" pos="155.55" lane="1/2to0/2_0" slope="0.00"/>
        <vehicle id="3" x="257.11" y="201.65" angle="-90.00" type="DEFAULT_VEHTYPE" speed="13.02" pos="138.14" lane="2/1to1/1_0" slope="0.00"/>
        <vehicle id="4" x="276.08" y="401.65" angle="-90.00" type="DEFAULT_VEHTYPE" speed="12.63" pos="119.17" lane="2/2to1/2_0" slope="0.00"/>
        <vehicle id="5" x="481.48" y="201.65" angle="-90.00" type="DEFAULT_VEHTYPE" speed="13.70" pos="113.77" lane="3/1to2/1_0" slope="0.00"/>
        <vehicle id="6" x="601.65" y="96.47" angle="180.00" type="DEFAULT_VEHTYPE" speed="12.72" pos="96.47" lane="3/0to3/1_0" slope="0.00"/>
        <vehicle id="7" x="398.35" y="303.81" angle="0.00" type="DEFAULT_VEHTYPE" speed="13.45" pos="91.44" lane="2/2to2/1_0" slope="0.00"/>
        <vehicle id="8" x="723.95" y="201.65" angle="-90.00" type="DEFAULT_VEHTYPE" speed="13.04" pos="76.05" lane="4/1to3/1_0" slope="0.00"/>
        <vehicle id="9" x="261.09" y="398.35" angle="90.00" type="DEFAULT_VEHTYPE" speed="12.87" pos="56.34" lane="1/2to2/2_0" slope="0.00"/>
    </timestep>
    <timestep time="17.00">
        <vehicle id="0" x="398.35" y="8.62" angle="0.00" type="DEFAULT_VEHTYPE" speed="13.15" pos="186.63" lane="2/1to2/0_0" slope="0.00"/>
        <vehicle id="1" x="8.20" y="601.65" angle="-90.00" type="DEFAULT_VEHTYPE" speed="13.77" pos="187.05" lane="1/3to0/3_0" slope="0.00"/>
        <vehicle id="10" x="267.65" y="198.35" angle="90.00" type="DEFAULT_VEHTYPE" speed="13.68" pos="62.90" lane="1/1to2/1_0" slope="0.00"/>
        <vehicle id="11" x="47.87" y="198.35" angle="90.00" type="DEFAULT_VEHTYPE" speed="12.08" pos="47.87" lane="0/1to1/1_0" slope="0.00"/>
        <vehicle id="12" x="240.92" y="598.35" angle="90.00" type="DEFAULT_VEHTYPE" speed="10.07" pos="36.17" lane="1/3to2/3_0" slope="0.00"/>
        <vehicle id="13" x="198.35" y="175.02" angle="0.00" type="DEFAULT_VEHTYPE" speed="6.49" pos="20.23" lane="1/1to1/0_0" slope="0.00"/>
        <vehicle id="14" x="401.65" y="422.02" angle="180.00" type="DEFAULT_VEHTYPE" speed="6.11" pos="17.27" lane="2/2to2/3_0" slope="0.00"/>
        <vehicle id="15" x="585.78" y="201.65" angle="-90.00" type="DEFAULT_VEHTYPE" speed="2.87" pos="9.47" lane="3/1to2/1_0" slope="0.00"/>
        <vehicle id="16" x="398.35" y="388.83" angle="0.00" type="DEFAULT_VEHTYPE" speed="1.32" pos="6.42" lane="2/2to2/1_0" slope="0.00"/>
        <vehicle id="17" x="190.15" y="401.65" angle="-90.00" type="DEFAULT_VEHTYPE" speed="0.00" pos="5.10" lane="1/2to0/2_0" slope="0.00"/>
        <vehicle id="2" x="26.91" y="401.65" angle="-90.00" type="DEFAULT_VEHTYPE" speed="12.79" pos="168.34" lane="1/2to0/2_0" slope="0.00"/>
        <vehicle id="3" x="244.04" y="201.65" angle="-90.00" type="DEFAULT_VEHTYPE" speed="13.07" pos="151.21" lane="2/1to1/1_0" slope="0.00"/>
        <vehicle id="4" x="263.25" y="401.65" angle="-90.00" type="DEFAULT_VEHTYPE" speed="12.83" pos="132.00" lane="2/2to1/2_0" slope="0.00"/>
        <vehicle id="5" x="468.29" y="201.65" angle="-90.00" type="DEFAULT_VEHTYPE" speed="13.19" pos="126.96" lane="3/1to2/1_0" slope="0.00"/>
        <vehicle id="6" x="601.65" y="110.35" angle="180.00" type="DEFAULT_VEHTYPE" speed="13.88" pos="110.35" lane="3/0to3/1_0" slope="0.00"/>
        <vehicle id="7" x="398.35" y="291.06" angle="0.00" type="DEFAULT_VEHTYPE" speed="12.75" pos="104.19" lane="2/2to2/1_0" slope="0.00"/>
        <vehicle id="8" x="710.68" y="201.65" angle="-90.00" type="DEFAULT_VEHTYPE" speed="13.27" pos="89.32" lane="4/1to3/1_0" slope="0.00"/>
        <vehicle id="9" x="273.81" y="398.35" angle="90.00" type="DEFAULT_VEHTYPE" speed="12.73" pos="69.06" lane="1/2to2/2_0" slope="0.00"/>
    </timestep>
    <timestep time="18.00">
        <vehicle id="0" x="401.65" y="0.46" angle="102.31" type="DEFAULT_VEHTYPE" speed="13.90" pos="0.46" lane="2/0to2/1_0" slope="0.00"/>
        <vehicle id="1" x="0.03" y="598.35" angle="-2.25" type="DEFAULT_VEHTYPE" speed="13.04" pos="0.03" lane="0/3to1/3_0" slope="0.00"/>
        <vehicle id="10" x="280.34" y="198.35" angle="90.00" type="DEFAULT_VEHTYPE" speed="12.68" pos="75.59" lane="1/1to2/1_0" slope="0.00"/>
        <vehicle id="11" x="60.75" y="198.35" angle="90.00" type="DEFAULT_VEHTYPE" speed="12.88" pos="60.75" lane="0/1to1/1_0" slope="0.00"/>
        <vehicle id="12" x="252.98" y="598.35" angle="90.00" type="DEFAULT_VEHTYPE" speed="12.06" pos="48.23" lane="1/3to2/3_0" slope="0.00"/>
        <vehicle id="13" x="198.35" y="167.03" angle="0.00" type="DEFAULT_VEHTYPE" speed="8.00" pos="28.22" lane="1/1to1/0_0" slope="0.00"/>
        <vehicle id="14" x="401.65" y="430.29" angle="180.00" type="DEFAULT_VEHTYPE" speed="8.27" pos="25.54" lane="2/2to2/3_0" slope="0.00"/>
        <vehicle id="15" x="580.84" y="201.65" angle="-90.00" type="DEFAULT_VEHTYPE" speed="4.94" pos="14.41" lane="3/1to2/1_0" slope="0.00"/>
        <vehicle id="16" x="398.35" y="385.97" angle="0.00" type="DEFAULT_VEHTYPE" speed="2.86" pos="9.28" lane="2/2to2/1_0" slope="0.00"/>
        <vehicle id="17" x="188.74" y="401.65" angle="-90.00" type="DEFAULT_VEHTYPE" speed="1.41" pos="6.51" lane="1/2to0/2_0" slope="0.00"/>
        <vehicle id="18" x="209.85" y="398.35" angle="90.00" type="DEFAULT_VEHTYPE" speed="0.00" pos="5.10" lane="1/2to2/2_0" slope="0.00"/>
        <vehicle id="2" x="13.03" y="401.65" angle="-90.00" type="DEFAULT_VEHTYPE" speed="13.88" pos="182.22" lane="1/2to0/2_0" slope="0.00"/>
        <vehicle id="3" x="230.77" y="201.65" angle="-90.00" type="DEFAULT_VEHTYPE" speed="13.27" pos="164.48" lane="2/1to1/1_0" slope="0.00"/>
        <vehicle id="4" x="250.53" y="401.65" angle="-90.00" type="DEFAULT_VEHTYPE" speed="12.72" pos="144.72" lane="2/2to1/2_0" slope="0.00"/>
        <vehicle id="5" x="454.54" y="201.65" angle="-90.00" type="DEFAULT_VEHTYPE" speed="13.75" pos="140.71" lane="3/1to2/1_0" slope="0.00"/>
        <vehicle id="6" x="601.65" y="123.15" angle="180.00" type="DEFAULT_VEHTYPE" speed="12.79" pos="123.15" lane="3/0to3/1_0" slope="0.00"/>
        <vehicle id="7" x="398.35" y="277.67" angle="0.00" type="DEFAULT_VEHTYPE" speed="13.39" pos="117.58" lane="2/2to2/1_0" slope="0.00"/>
        <vehicle id="8" x="698.08" y="201.65" angle="-90.00" type="DEFAULT_VEHTYPE" speed="12.60" pos="101.92" lane="4/1to3/1_0" slope="0.00"/>
        <vehicle id="9" x="287.08" y="398.35" angle="90.00" type="DEFAULT_VEHTYPE" speed="13.27" pos="82.33" lane="1/2to2/2_0" slope="0.00"/>
    </timestep>
    <timestep time="19.00">
        <vehicle id="0" x="401.65" y="13.16" angle="180.00" type="DEFAULT_VEHTYPE" speed="12.70" pos="13.16" lane="2/0to2/1_0" slope="0.00"/>
        <vehicle id="1" x="13.51" y="598.35" angle="90.00" type="DEFAULT_VEHTYPE" speed="13.48" pos="13.51" lane="0/3to1/3_0" slope="0.00"/>
        <vehicle id="10" x="294.09" y="198.35" angle="90.00" type="DEFAULT_VEHTYPE" speed="13.75" pos="89.34" lane="1/1to2/1_0" slope="0.00"/>
        <vehicle id="11" x="74.52" y="198.35" angle="90.00" type="DEFAULT_VEHTYPE" speed="13.77" pos="74.52" lane="0/1to1/1_0" slope="0.00"/>
        <vehicle id="12" x="266.59" y="598.35" angle="90.00" type="DEFAULT_VEHTYPE" speed="13.61" pos="61.84" lane="1/3to2/3_0" slope="0.00"/>
        <vehicle id="13" x="198.35" y="156.72" angle="0.00" type="DEFAULT_VEHTYPE" speed="10.30" pos="38.53" lane="1/1to1/0_0" slope="0.00"/>
        <vehicle id="14" x="401.65" y="440.91" angle="180.00" type="DEFAULT_VEHTYPE" speed="10.62" pos="36.16" lane="2/2to2/3_0" slope="0.00"/>
        <vehicle id="15" x="574.24" y="201.65" angle="-90.00" type="DEFAULT_VEHTYPE" speed="6.60" pos="21.01" lane="3/1to2/1_0" slope="0.00"/>
        <vehicle id="16" x="398.35" y="381.55" angle="0.00" type="DEFAULT_VEHTYPE" speed="4.42" pos="13.70" lane="2/2to2/1_0" slope="0.00"/>